l -t 0 -s 0 -d 4 -S DLABEL -l "v=50Mb" -L ""
l -t 0 -s 4 -d 0 -S DLABEL -l "v=50Mb" -L ""
l -t 0 -s 1 -d 5 -S DLABEL -l "v=0,1Gb" -L ""
l -t 0 -s 5 -d 1 -S DLABEL -l "v=0,1Gb" -L ""
l -t 0 -s 4 -d 3 -S DLABEL -l "v=10Mb" -L ""
l -t 0 -s 3 -d 4 -S DLABEL -l "v=10Mb" -L ""
l -t 0 -s 4 -d 5 -S DLABEL -l "v=200Mb" -L ""
l -t 0 -s 5 -d 4 -S DLABEL -l "v=200Mb" -L ""
l -t 0 -s 4 -d 6 -S DLABEL -l "v=1Gb" -L ""
l -t 0 -s 6 -d 4 -S DLABEL -l "v=1Gb" -L ""
l -t 0 -s 5 -d 6 -S DLABEL -l "v=100Mb" -L ""
l -t 0 -s 6 -d 5 -S DLABEL -l "v=100Mb" -L ""
l -t 0 -s 6 -d 2 -S DLABEL -l "v=40Mb" -L ""
l -t 0 -s 2 -d 6 -S DLABEL -l "v=40Mb" -L ""
n -t 0 -s 0 -S DLABEL -l "Servidor 1" -L ""
n -t 0 -s 1 -S DLABEL -l "Servidor 2" -L ""
n -t 0 -s 2 -S DLABEL -l "Receptor 1" -L ""
n -t 0 -s 3 -S DLABEL -l "Receptor 2" -L ""
n -t 0 -s 4 -S DLABEL -l "R4" -L ""
n -t 0 -s 5 -S DLABEL -l "R5" -L ""
n -t 0 -s 6 -S DLABEL -l "R6" -L ""
V -t * -v 1.0a5 -a 0
A -t * -n 1 -p 0 -o 0x7fffffff -c 30 -a 1
A -t * -h 1 -m 1073741823 -s 0
c -t * -i 4 -n Red
c -t * -i 1 -n Green
c -t * -i 2 -n Yellow
c -t * -i 3 -n Blue
n -t * -a 4 -s 4 -S UP -v circle -c black -i black
n -t * -a 0 -s 0 -S UP -v hexagon -c Red -i Red
n -t * -a 5 -s 5 -S UP -v circle -c black -i black
n -t * -a 1 -s 1 -S UP -v hexagon -c Red -i Red
n -t * -a 6 -s 6 -S UP -v circle -c black -i black
n -t * -a 2 -s 2 -S UP -v square -c Blue -i Blue
n -t * -a 3 -s 3 -S UP -v square -c Blue -i Blue
l -t * -s 0 -d 4 -S UP -r 50000000 -D 0.01 -c black -o down
l -t * -s 1 -d 5 -S UP -r 100000000 -D 0.01 -c black -o down
l -t * -s 4 -d 6 -S UP -r 1000000000 -D 0.01 -c black -o right-down
l -t * -s 4 -d 5 -S UP -r 200000000 -D 0.01 -c black -o right
l -t * -s 4 -d 3 -S UP -r 10000000 -D 0.01 -c black -o down
l -t * -s 5 -d 6 -S UP -r 100000000 -D 0.01 -c black -o down
l -t * -s 6 -d 2 -S UP -r 40000000 -D 0.0030000000000000001 -c black -o right
q -t * -s 1 -d 5 -a 0.5
q -t * -s 5 -d 1 -a 0.5
q -t * -s 4 -d 3 -a 0.5
q -t * -s 3 -d 4 -a 0.5
q -t * -s 2 -d 6 -a 0.5
q -t * -s 6 -d 2 -a 0.5
q -t * -s 4 -d 5 -a 0.5
q -t * -s 5 -d 4 -a 0.5
q -t * -s 4 -d 6 -a 0.5
q -t * -s 6 -d 4 -a 0.5
q -t * -s 0 -d 4 -a 0.5
q -t * -s 4 -d 0 -a 0.5
+ -t 0.000169788487334637 -s 0 -d 4 -p rtProtoDV -e 7 -c 0 -i 0 -a 0 -x {0.2 4.1 -1 ------- null}
- -t 0.000169788487334637 -s 0 -d 4 -p rtProtoDV -e 7 -c 0 -i 0 -a 0 -x {0.2 4.1 -1 ------- null}
h -t 0.000169788487334637 -s 0 -d 4 -p rtProtoDV -e 7 -c 0 -i 0 -a 0 -x {0.2 4.1 -1 ------- null}
+ -t 0.00710233021858257 -s 2 -d 6 -p rtProtoDV -e 7 -c 0 -i 1 -a 0 -x {2.2 6.1 -1 ------- null}
- -t 0.00710233021858257 -s 2 -d 6 -p rtProtoDV -e 7 -c 0 -i 1 -a 0 -x {2.2 6.1 -1 ------- null}
h -t 0.00710233021858257 -s 2 -d 6 -p rtProtoDV -e 7 -c 0 -i 1 -a 0 -x {2.2 6.1 -1 ------- null}
r -t 0.0101037302185826 -s 2 -d 6 -p rtProtoDV -e 7 -c 0 -i 1 -a 0 -x {2.2 6.1 -1 ------- null}
r -t 0.0101709084873346 -s 0 -d 4 -p rtProtoDV -e 7 -c 0 -i 0 -a 0 -x {0.2 4.1 -1 ------- null}
+ -t 0.04406133552271 -s 3 -d 4 -p rtProtoDV -e 7 -c 0 -i 2 -a 0 -x {3.1 4.1 -1 ------- null}
- -t 0.04406133552271 -s 3 -d 4 -p rtProtoDV -e 7 -c 0 -i 2 -a 0 -x {3.1 4.1 -1 ------- null}
h -t 0.04406133552271 -s 3 -d 4 -p rtProtoDV -e 7 -c 0 -i 2 -a 0 -x {3.1 4.1 -1 ------- null}
r -t 0.05406693552271 -s 3 -d 4 -p rtProtoDV -e 7 -c 0 -i 2 -a 0 -x {3.1 4.1 -1 ------- null}
+ -t 0.156480885882155 -s 6 -d 2 -p rtProtoDV -e 7 -c 0 -i 3 -a 0 -x {6.1 2.2 -1 ------- null}
- -t 0.156480885882155 -s 6 -d 2 -p rtProtoDV -e 7 -c 0 -i 3 -a 0 -x {6.1 2.2 -1 ------- null}
h -t 0.156480885882155 -s 6 -d 2 -p rtProtoDV -e 7 -c 0 -i 3 -a 0 -x {6.1 2.2 -1 ------- null}
+ -t 0.156480885882155 -s 6 -d 4 -p rtProtoDV -e 7 -c 0 -i 4 -a 0 -x {6.1 4.1 -1 ------- null}
- -t 0.156480885882155 -s 6 -d 4 -p rtProtoDV -e 7 -c 0 -i 4 -a 0 -x {6.1 4.1 -1 ------- null}
h -t 0.156480885882155 -s 6 -d 4 -p rtProtoDV -e 7 -c 0 -i 4 -a 0 -x {6.1 4.1 -1 ------- null}
+ -t 0.156480885882155 -s 6 -d 5 -p rtProtoDV -e 7 -c 0 -i 5 -a 0 -x {6.1 5.1 -1 ------- null}
- -t 0.156480885882155 -s 6 -d 5 -p rtProtoDV -e 7 -c 0 -i 5 -a 0 -x {6.1 5.1 -1 ------- null}
h -t 0.156480885882155 -s 6 -d 5 -p rtProtoDV -e 7 -c 0 -i 5 -a 0 -x {6.1 5.1 -1 ------- null}
r -t 0.159482285882155 -s 6 -d 2 -p rtProtoDV -e 7 -c 0 -i 3 -a 0 -x {6.1 2.2 -1 ------- null}
+ -t 0.159482285882155 -s 2 -d 6 -p rtProtoDV -e 7 -c 0 -i 6 -a 0 -x {2.2 6.1 -1 ------- null}
- -t 0.159482285882155 -s 2 -d 6 -p rtProtoDV -e 7 -c 0 -i 6 -a 0 -x {2.2 6.1 -1 ------- null}
h -t 0.159482285882155 -s 2 -d 6 -p rtProtoDV -e 7 -c 0 -i 6 -a 0 -x {2.2 6.1 -1 ------- null}
r -t 0.162483685882155 -s 2 -d 6 -p rtProtoDV -e 7 -c 0 -i 6 -a 0 -x {2.2 6.1 -1 ------- null}
r -t 0.166480941882155 -s 6 -d 4 -p rtProtoDV -e 7 -c 0 -i 4 -a 0 -x {6.1 4.1 -1 ------- null}
+ -t 0.166480941882155 -s 4 -d 0 -p rtProtoDV -e 7 -c 0 -i 7 -a 0 -x {4.1 0.2 -1 ------- null}
- -t 0.166480941882155 -s 4 -d 0 -p rtProtoDV -e 7 -c 0 -i 7 -a 0 -x {4.1 0.2 -1 ------- null}
h -t 0.166480941882155 -s 4 -d 0 -p rtProtoDV -e 7 -c 0 -i 7 -a 0 -x {4.1 0.2 -1 ------- null}
+ -t 0.166480941882155 -s 4 -d 3 -p rtProtoDV -e 7 -c 0 -i 8 -a 0 -x {4.1 3.1 -1 ------- null}
- -t 0.166480941882155 -s 4 -d 3 -p rtProtoDV -e 7 -c 0 -i 8 -a 0 -x {4.1 3.1 -1 ------- null}
h -t 0.166480941882155 -s 4 -d 3 -p rtProtoDV -e 7 -c 0 -i 8 -a 0 -x {4.1 3.1 -1 ------- null}
+ -t 0.166480941882155 -s 4 -d 5 -p rtProtoDV -e 7 -c 0 -i 9 -a 0 -x {4.1 5.1 -1 ------- null}
- -t 0.166480941882155 -s 4 -d 5 -p rtProtoDV -e 7 -c 0 -i 9 -a 0 -x {4.1 5.1 -1 ------- null}
h -t 0.166480941882155 -s 4 -d 5 -p rtProtoDV -e 7 -c 0 -i 9 -a 0 -x {4.1 5.1 -1 ------- null}
+ -t 0.166480941882155 -s 4 -d 6 -p rtProtoDV -e 7 -c 0 -i 10 -a 0 -x {4.1 6.1 -1 ------- null}
- -t 0.166480941882155 -s 4 -d 6 -p rtProtoDV -e 7 -c 0 -i 10 -a 0 -x {4.1 6.1 -1 ------- null}
h -t 0.166480941882155 -s 4 -d 6 -p rtProtoDV -e 7 -c 0 -i 10 -a 0 -x {4.1 6.1 -1 ------- null}
r -t 0.166481445882155 -s 6 -d 5 -p rtProtoDV -e 7 -c 0 -i 5 -a 0 -x {6.1 5.1 -1 ------- null}
+ -t 0.166481445882155 -s 5 -d 1 -p rtProtoDV -e 7 -c 0 -i 11 -a 0 -x {5.1 1.1 -1 ------- null}
- -t 0.166481445882155 -s 5 -d 1 -p rtProtoDV -e 7 -c 0 -i 11 -a 0 -x {5.1 1.1 -1 ------- null}
h -t 0.166481445882155 -s 5 -d 1 -p rtProtoDV -e 7 -c 0 -i 11 -a 0 -x {5.1 1.1 -1 ------- null}
+ -t 0.166481445882155 -s 5 -d 4 -p rtProtoDV -e 7 -c 0 -i 12 -a 0 -x {5.1 4.1 -1 ------- null}
- -t 0.166481445882155 -s 5 -d 4 -p rtProtoDV -e 7 -c 0 -i 12 -a 0 -x {5.1 4.1 -1 ------- null}
h -t 0.166481445882155 -s 5 -d 4 -p rtProtoDV -e 7 -c 0 -i 12 -a 0 -x {5.1 4.1 -1 ------- null}
+ -t 0.166481445882155 -s 5 -d 6 -p rtProtoDV -e 7 -c 0 -i 13 -a 0 -x {5.1 6.1 -1 ------- null}
- -t 0.166481445882155 -s 5 -d 6 -p rtProtoDV -e 7 -c 0 -i 13 -a 0 -x {5.1 6.1 -1 ------- null}
h -t 0.166481445882155 -s 5 -d 6 -p rtProtoDV -e 7 -c 0 -i 13 -a 0 -x {5.1 6.1 -1 ------- null}
r -t 0.176480997882155 -s 4 -d 6 -p rtProtoDV -e 7 -c 0 -i 10 -a 0 -x {4.1 6.1 -1 ------- null}
+ -t 0.176480997882155 -s 6 -d 2 -p rtProtoDV -e 7 -c 0 -i 14 -a 0 -x {6.1 2.2 -1 ------- null}
- -t 0.176480997882155 -s 6 -d 2 -p rtProtoDV -e 7 -c 0 -i 14 -a 0 -x {6.1 2.2 -1 ------- null}
h -t 0.176480997882155 -s 6 -d 2 -p rtProtoDV -e 7 -c 0 -i 14 -a 0 -x {6.1 2.2 -1 ------- null}
+ -t 0.176480997882155 -s 6 -d 4 -p rtProtoDV -e 7 -c 0 -i 15 -a 0 -x {6.1 4.1 -1 ------- null}
- -t 0.176480997882155 -s 6 -d 4 -p rtProtoDV -e 7 -c 0 -i 15 -a 0 -x {6.1 4.1 -1 ------- null}
h -t 0.176480997882155 -s 6 -d 4 -p rtProtoDV -e 7 -c 0 -i 15 -a 0 -x {6.1 4.1 -1 ------- null}
+ -t 0.176480997882155 -s 6 -d 5 -p rtProtoDV -e 7 -c 0 -i 16 -a 0 -x {6.1 5.1 -1 ------- null}
- -t 0.176480997882155 -s 6 -d 5 -p rtProtoDV -e 7 -c 0 -i 16 -a 0 -x {6.1 5.1 -1 ------- null}
h -t 0.176480997882155 -s 6 -d 5 -p rtProtoDV -e 7 -c 0 -i 16 -a 0 -x {6.1 5.1 -1 ------- null}
r -t 0.176481221882155 -s 4 -d 5 -p rtProtoDV -e 7 -c 0 -i 9 -a 0 -x {4.1 5.1 -1 ------- null}
+ -t 0.176481221882155 -s 5 -d 1 -p rtProtoDV -e 7 -c 0 -i 17 -a 0 -x {5.1 1.1 -1 ------- null}
- -t 0.176481221882155 -s 5 -d 1 -p rtProtoDV -e 7 -c 0 -i 17 -a 0 -x {5.1 1.1 -1 ------- null}
h -t 0.176481221882155 -s 5 -d 1 -p rtProtoDV -e 7 -c 0 -i 17 -a 0 -x {5.1 1.1 -1 ------- null}
+ -t 0.176481221882155 -s 5 -d 4 -p rtProtoDV -e 7 -c 0 -i 18 -a 0 -x {5.1 4.1 -1 ------- null}
- -t 0.176481221882155 -s 5 -d 4 -p rtProtoDV -e 7 -c 0 -i 18 -a 0 -x {5.1 4.1 -1 ------- null}
h -t 0.176481221882155 -s 5 -d 4 -p rtProtoDV -e 7 -c 0 -i 18 -a 0 -x {5.1 4.1 -1 ------- null}
+ -t 0.176481221882155 -s 5 -d 6 -p rtProtoDV -e 7 -c 0 -i 19 -a 0 -x {5.1 6.1 -1 ------- null}
- -t 0.176481221882155 -s 5 -d 6 -p rtProtoDV -e 7 -c 0 -i 19 -a 0 -x {5.1 6.1 -1 ------- null}
h -t 0.176481221882155 -s 5 -d 6 -p rtProtoDV -e 7 -c 0 -i 19 -a 0 -x {5.1 6.1 -1 ------- null}
r -t 0.176481725882155 -s 5 -d 4 -p rtProtoDV -e 7 -c 0 -i 12 -a 0 -x {5.1 4.1 -1 ------- null}
+ -t 0.176481725882155 -s 4 -d 0 -p rtProtoDV -e 7 -c 0 -i 20 -a 0 -x {4.1 0.2 -1 ------- null}
- -t 0.176481725882155 -s 4 -d 0 -p rtProtoDV -e 7 -c 0 -i 20 -a 0 -x {4.1 0.2 -1 ------- null}
h -t 0.176481725882155 -s 4 -d 0 -p rtProtoDV -e 7 -c 0 -i 20 -a 0 -x {4.1 0.2 -1 ------- null}
+ -t 0.176481725882155 -s 4 -d 3 -p rtProtoDV -e 7 -c 0 -i 21 -a 0 -x {4.1 3.1 -1 ------- null}
- -t 0.176481725882155 -s 4 -d 3 -p rtProtoDV -e 7 -c 0 -i 21 -a 0 -x {4.1 3.1 -1 ------- null}
h -t 0.176481725882155 -s 4 -d 3 -p rtProtoDV -e 7 -c 0 -i 21 -a 0 -x {4.1 3.1 -1 ------- null}
+ -t 0.176481725882155 -s 4 -d 5 -p rtProtoDV -e 7 -c 0 -i 22 -a 0 -x {4.1 5.1 -1 ------- null}
- -t 0.176481725882155 -s 4 -d 5 -p rtProtoDV -e 7 -c 0 -i 22 -a 0 -x {4.1 5.1 -1 ------- null}
h -t 0.176481725882155 -s 4 -d 5 -p rtProtoDV -e 7 -c 0 -i 22 -a 0 -x {4.1 5.1 -1 ------- null}
+ -t 0.176481725882155 -s 4 -d 6 -p rtProtoDV -e 7 -c 0 -i 23 -a 0 -x {4.1 6.1 -1 ------- null}
- -t 0.176481725882155 -s 4 -d 6 -p rtProtoDV -e 7 -c 0 -i 23 -a 0 -x {4.1 6.1 -1 ------- null}
h -t 0.176481725882155 -s 4 -d 6 -p rtProtoDV -e 7 -c 0 -i 23 -a 0 -x {4.1 6.1 -1 ------- null}
r -t 0.176482005882155 -s 5 -d 1 -p rtProtoDV -e 7 -c 0 -i 11 -a 0 -x {5.1 1.1 -1 ------- null}
+ -t 0.176482005882155 -s 1 -d 5 -p rtProtoDV -e 7 -c 0 -i 24 -a 0 -x {1.1 5.1 -1 ------- null}
- -t 0.176482005882155 -s 1 -d 5 -p rtProtoDV -e 7 -c 0 -i 24 -a 0 -x {1.1 5.1 -1 ------- null}
h -t 0.176482005882155 -s 1 -d 5 -p rtProtoDV -e 7 -c 0 -i 24 -a 0 -x {1.1 5.1 -1 ------- null}
r -t 0.176482005882155 -s 5 -d 6 -p rtProtoDV -e 7 -c 0 -i 13 -a 0 -x {5.1 6.1 -1 ------- null}
+ -t 0.176482005882155 -s 6 -d 2 -p rtProtoDV -e 7 -c 0 -i 25 -a 0 -x {6.1 2.2 -1 ------- null}
+ -t 0.176482005882155 -s 6 -d 4 -p rtProtoDV -e 7 -c 0 -i 26 -a 0 -x {6.1 4.1 -1 ------- null}
- -t 0.176482005882155 -s 6 -d 4 -p rtProtoDV -e 7 -c 0 -i 26 -a 0 -x {6.1 4.1 -1 ------- null}
h -t 0.176482005882155 -s 6 -d 4 -p rtProtoDV -e 7 -c 0 -i 26 -a 0 -x {6.1 4.1 -1 ------- null}
+ -t 0.176482005882155 -s 6 -d 5 -p rtProtoDV -e 7 -c 0 -i 27 -a 0 -x {6.1 5.1 -1 ------- null}
- -t 0.176482005882155 -s 6 -d 5 -p rtProtoDV -e 7 -c 0 -i 27 -a 0 -x {6.1 5.1 -1 ------- null}
h -t 0.176482005882155 -s 6 -d 5 -p rtProtoDV -e 7 -c 0 -i 27 -a 0 -x {6.1 5.1 -1 ------- null}
r -t 0.176482061882155 -s 4 -d 0 -p rtProtoDV -e 7 -c 0 -i 7 -a 0 -x {4.1 0.2 -1 ------- null}
+ -t 0.176482061882155 -s 0 -d 4 -p rtProtoDV -e 7 -c 0 -i 28 -a 0 -x {0.2 4.1 -1 ------- null}
- -t 0.176482061882155 -s 0 -d 4 -p rtProtoDV -e 7 -c 0 -i 28 -a 0 -x {0.2 4.1 -1 ------- null}
h -t 0.176482061882155 -s 0 -d 4 -p rtProtoDV -e 7 -c 0 -i 28 -a 0 -x {0.2 4.1 -1 ------- null}
- -t 0.176482397882155 -s 6 -d 2 -p rtProtoDV -e 7 -c 0 -i 25 -a 0 -x {6.1 2.2 -1 ------- null}
h -t 0.176482397882155 -s 6 -d 2 -p rtProtoDV -e 7 -c 0 -i 25 -a 0 -x {6.1 2.2 -1 ------- null}
r -t 0.176486541882155 -s 4 -d 3 -p rtProtoDV -e 7 -c 0 -i 8 -a 0 -x {4.1 3.1 -1 ------- null}
+ -t 0.176486541882155 -s 3 -d 4 -p rtProtoDV -e 7 -c 0 -i 29 -a 0 -x {3.1 4.1 -1 ------- null}
- -t 0.176486541882155 -s 3 -d 4 -p rtProtoDV -e 7 -c 0 -i 29 -a 0 -x {3.1 4.1 -1 ------- null}
h -t 0.176486541882155 -s 3 -d 4 -p rtProtoDV -e 7 -c 0 -i 29 -a 0 -x {3.1 4.1 -1 ------- null}
r -t 0.179482397882155 -s 6 -d 2 -p rtProtoDV -e 7 -c 0 -i 14 -a 0 -x {6.1 2.2 -1 ------- null}
+ -t 0.179482397882155 -s 2 -d 6 -p rtProtoDV -e 7 -c 0 -i 30 -a 0 -x {2.2 6.1 -1 ------- null}
- -t 0.179482397882155 -s 2 -d 6 -p rtProtoDV -e 7 -c 0 -i 30 -a 0 -x {2.2 6.1 -1 ------- null}
h -t 0.179482397882155 -s 2 -d 6 -p rtProtoDV -e 7 -c 0 -i 30 -a 0 -x {2.2 6.1 -1 ------- null}
r -t 0.179483797882155 -s 6 -d 2 -p rtProtoDV -e 7 -c 0 -i 25 -a 0 -x {6.1 2.2 -1 ------- null}
+ -t 0.179483797882155 -s 2 -d 6 -p rtProtoDV -e 7 -c 0 -i 31 -a 0 -x {2.2 6.1 -1 ------- null}
- -t 0.179483797882155 -s 2 -d 6 -p rtProtoDV -e 7 -c 0 -i 31 -a 0 -x {2.2 6.1 -1 ------- null}
h -t 0.179483797882155 -s 2 -d 6 -p rtProtoDV -e 7 -c 0 -i 31 -a 0 -x {2.2 6.1 -1 ------- null}
r -t 0.182483797882155 -s 2 -d 6 -p rtProtoDV -e 7 -c 0 -i 30 -a 0 -x {2.2 6.1 -1 ------- null}
r -t 0.182485197882155 -s 2 -d 6 -p rtProtoDV -e 7 -c 0 -i 31 -a 0 -x {2.2 6.1 -1 ------- null}
r -t 0.186481053882155 -s 6 -d 4 -p rtProtoDV -e 7 -c 0 -i 15 -a 0 -x {6.1 4.1 -1 ------- null}
r -t 0.186481501882155 -s 5 -d 4 -p rtProtoDV -e 7 -c 0 -i 18 -a 0 -x {5.1 4.1 -1 ------- null}
r -t 0.186481557882155 -s 6 -d 5 -p rtProtoDV -e 7 -c 0 -i 16 -a 0 -x {6.1 5.1 -1 ------- null}
r -t 0.186481781882155 -s 5 -d 1 -p rtProtoDV -e 7 -c 0 -i 17 -a 0 -x {5.1 1.1 -1 ------- null}
+ -t 0.186481781882155 -s 1 -d 5 -p rtProtoDV -e 7 -c 0 -i 32 -a 0 -x {1.1 5.1 -1 ------- null}
- -t 0.186481781882155 -s 1 -d 5 -p rtProtoDV -e 7 -c 0 -i 32 -a 0 -x {1.1 5.1 -1 ------- null}
h -t 0.186481781882155 -s 1 -d 5 -p rtProtoDV -e 7 -c 0 -i 32 -a 0 -x {1.1 5.1 -1 ------- null}
r -t 0.186481781882155 -s 5 -d 6 -p rtProtoDV -e 7 -c 0 -i 19 -a 0 -x {5.1 6.1 -1 ------- null}
r -t 0.186481781882155 -s 4 -d 6 -p rtProtoDV -e 7 -c 0 -i 23 -a 0 -x {4.1 6.1 -1 ------- null}
r -t 0.186482005882155 -s 4 -d 5 -p rtProtoDV -e 7 -c 0 -i 22 -a 0 -x {4.1 5.1 -1 ------- null}
r -t 0.186482061882155 -s 6 -d 4 -p rtProtoDV -e 7 -c 0 -i 26 -a 0 -x {6.1 4.1 -1 ------- null}
r -t 0.186482565882155 -s 1 -d 5 -p rtProtoDV -e 7 -c 0 -i 24 -a 0 -x {1.1 5.1 -1 ------- null}
r -t 0.186482565882155 -s 6 -d 5 -p rtProtoDV -e 7 -c 0 -i 27 -a 0 -x {6.1 5.1 -1 ------- null}
r -t 0.186482845882155 -s 4 -d 0 -p rtProtoDV -e 7 -c 0 -i 20 -a 0 -x {4.1 0.2 -1 ------- null}
+ -t 0.186482845882155 -s 0 -d 4 -p rtProtoDV -e 7 -c 0 -i 33 -a 0 -x {0.2 4.1 -1 ------- null}
- -t 0.186482845882155 -s 0 -d 4 -p rtProtoDV -e 7 -c 0 -i 33 -a 0 -x {0.2 4.1 -1 ------- null}
h -t 0.186482845882155 -s 0 -d 4 -p rtProtoDV -e 7 -c 0 -i 33 -a 0 -x {0.2 4.1 -1 ------- null}
r -t 0.186483181882155 -s 0 -d 4 -p rtProtoDV -e 7 -c 0 -i 28 -a 0 -x {0.2 4.1 -1 ------- null}
r -t 0.186487325882155 -s 4 -d 3 -p rtProtoDV -e 7 -c 0 -i 21 -a 0 -x {4.1 3.1 -1 ------- null}
+ -t 0.186487325882155 -s 3 -d 4 -p rtProtoDV -e 7 -c 0 -i 34 -a 0 -x {3.1 4.1 -1 ------- null}
- -t 0.186487325882155 -s 3 -d 4 -p rtProtoDV -e 7 -c 0 -i 34 -a 0 -x {3.1 4.1 -1 ------- null}
h -t 0.186487325882155 -s 3 -d 4 -p rtProtoDV -e 7 -c 0 -i 34 -a 0 -x {3.1 4.1 -1 ------- null}
r -t 0.186492141882155 -s 3 -d 4 -p rtProtoDV -e 7 -c 0 -i 29 -a 0 -x {3.1 4.1 -1 ------- null}
r -t 0.196482341882155 -s 1 -d 5 -p rtProtoDV -e 7 -c 0 -i 32 -a 0 -x {1.1 5.1 -1 ------- null}
r -t 0.196483965882155 -s 0 -d 4 -p rtProtoDV -e 7 -c 0 -i 33 -a 0 -x {0.2 4.1 -1 ------- null}
r -t 0.196492925882155 -s 3 -d 4 -p rtProtoDV -e 7 -c 0 -i 34 -a 0 -x {3.1 4.1 -1 ------- null}
+ -t 0.22058669092161 -s 4 -d 0 -p rtProtoDV -e 7 -c 0 -i 35 -a 0 -x {4.1 0.2 -1 ------- null}
- -t 0.22058669092161 -s 4 -d 0 -p rtProtoDV -e 7 -c 0 -i 35 -a 0 -x {4.1 0.2 -1 ------- null}
h -t 0.22058669092161 -s 4 -d 0 -p rtProtoDV -e 7 -c 0 -i 35 -a 0 -x {4.1 0.2 -1 ------- null}
+ -t 0.22058669092161 -s 4 -d 3 -p rtProtoDV -e 7 -c 0 -i 36 -a 0 -x {4.1 3.1 -1 ------- null}
- -t 0.22058669092161 -s 4 -d 3 -p rtProtoDV -e 7 -c 0 -i 36 -a 0 -x {4.1 3.1 -1 ------- null}
h -t 0.22058669092161 -s 4 -d 3 -p rtProtoDV -e 7 -c 0 -i 36 -a 0 -x {4.1 3.1 -1 ------- null}
+ -t 0.22058669092161 -s 4 -d 5 -p rtProtoDV -e 7 -c 0 -i 37 -a 0 -x {4.1 5.1 -1 ------- null}
- -t 0.22058669092161 -s 4 -d 5 -p rtProtoDV -e 7 -c 0 -i 37 -a 0 -x {4.1 5.1 -1 ------- null}
h -t 0.22058669092161 -s 4 -d 5 -p rtProtoDV -e 7 -c 0 -i 37 -a 0 -x {4.1 5.1 -1 ------- null}
+ -t 0.22058669092161 -s 4 -d 6 -p rtProtoDV -e 7 -c 0 -i 38 -a 0 -x {4.1 6.1 -1 ------- null}
- -t 0.22058669092161 -s 4 -d 6 -p rtProtoDV -e 7 -c 0 -i 38 -a 0 -x {4.1 6.1 -1 ------- null}
h -t 0.22058669092161 -s 4 -d 6 -p rtProtoDV -e 7 -c 0 -i 38 -a 0 -x {4.1 6.1 -1 ------- null}
r -t 0.23058674692161 -s 4 -d 6 -p rtProtoDV -e 7 -c 0 -i 38 -a 0 -x {4.1 6.1 -1 ------- null}
r -t 0.23058697092161 -s 4 -d 5 -p rtProtoDV -e 7 -c 0 -i 37 -a 0 -x {4.1 5.1 -1 ------- null}
r -t 0.23058781092161 -s 4 -d 0 -p rtProtoDV -e 7 -c 0 -i 35 -a 0 -x {4.1 0.2 -1 ------- null}
r -t 0.23059229092161 -s 4 -d 3 -p rtProtoDV -e 7 -c 0 -i 36 -a 0 -x {4.1 3.1 -1 ------- null}
+ -t 0.277940357931862 -s 1 -d 5 -p rtProtoDV -e 7 -c 0 -i 39 -a 0 -x {1.1 5.1 -1 ------- null}
- -t 0.277940357931862 -s 1 -d 5 -p rtProtoDV -e 7 -c 0 -i 39 -a 0 -x {1.1 5.1 -1 ------- null}
h -t 0.277940357931862 -s 1 -d 5 -p rtProtoDV -e 7 -c 0 -i 39 -a 0 -x {1.1 5.1 -1 ------- null}
r -t 0.287940917931862 -s 1 -d 5 -p rtProtoDV -e 7 -c 0 -i 39 -a 0 -x {1.1 5.1 -1 ------- null}
+ -t 0.399577726796073 -s 5 -d 1 -p rtProtoDV -e 7 -c 0 -i 40 -a 0 -x {5.1 1.1 -1 ------- null}
- -t 0.399577726796073 -s 5 -d 1 -p rtProtoDV -e 7 -c 0 -i 40 -a 0 -x {5.1 1.1 -1 ------- null}
h -t 0.399577726796073 -s 5 -d 1 -p rtProtoDV -e 7 -c 0 -i 40 -a 0 -x {5.1 1.1 -1 ------- null}
+ -t 0.399577726796073 -s 5 -d 4 -p rtProtoDV -e 7 -c 0 -i 41 -a 0 -x {5.1 4.1 -1 ------- null}
- -t 0.399577726796073 -s 5 -d 4 -p rtProtoDV -e 7 -c 0 -i 41 -a 0 -x {5.1 4.1 -1 ------- null}
h -t 0.399577726796073 -s 5 -d 4 -p rtProtoDV -e 7 -c 0 -i 41 -a 0 -x {5.1 4.1 -1 ------- null}
+ -t 0.399577726796073 -s 5 -d 6 -p rtProtoDV -e 7 -c 0 -i 42 -a 0 -x {5.1 6.1 -1 ------- null}
- -t 0.399577726796073 -s 5 -d 6 -p rtProtoDV -e 7 -c 0 -i 42 -a 0 -x {5.1 6.1 -1 ------- null}
h -t 0.399577726796073 -s 5 -d 6 -p rtProtoDV -e 7 -c 0 -i 42 -a 0 -x {5.1 6.1 -1 ------- null}
r -t 0.409578006796073 -s 5 -d 4 -p rtProtoDV -e 7 -c 0 -i 41 -a 0 -x {5.1 4.1 -1 ------- null}
r -t 0.409578286796073 -s 5 -d 1 -p rtProtoDV -e 7 -c 0 -i 40 -a 0 -x {5.1 1.1 -1 ------- null}
r -t 0.409578286796073 -s 5 -d 6 -p rtProtoDV -e 7 -c 0 -i 42 -a 0 -x {5.1 6.1 -1 ------- null}
+ -t 0.5 -s 0 -d 4 -p cbr -e 1000 -c 1 -i 43 -a 1 -x {0.0 2.0 0 ------- null}
- -t 0.5 -s 0 -d 4 -p cbr -e 1000 -c 1 -i 43 -a 1 -x {0.0 2.0 0 ------- null}
h -t 0.5 -s 0 -d 4 -p cbr -e 1000 -c 1 -i 43 -a 1 -x {0.0 2.0 -1 ------- null}
+ -t 0.5 -s 0 -d 4 -p cbr -e 1000 -c 1 -i 44 -a 1 -x {0.0 2.0 1 ------- null}
+ -t 0.5 -s 0 -d 4 -p cbr -e 1000 -c 1 -i 45 -a 1 -x {0.0 2.0 2 ------- null}
+ -t 0.5 -s 0 -d 4 -p cbr -e 1000 -c 1 -i 46 -a 1 -x {0.0 2.0 3 ------- null}
+ -t 0.5 -s 0 -d 4 -p cbr -e 1000 -c 1 -i 47 -a 1 -x {0.0 2.0 4 ------- null}
+ -t 0.5 -s 0 -d 4 -p cbr -e 1000 -c 1 -i 48 -a 1 -x {0.0 2.0 5 ------- null}
+ -t 0.5 -s 0 -d 4 -p cbr -e 1000 -c 1 -i 49 -a 1 -x {0.0 2.0 6 ------- null}
+ -t 0.5 -s 0 -d 4 -p cbr -e 1000 -c 1 -i 50 -a 1 -x {0.0 2.0 7 ------- null}
+ -t 0.5 -s 0 -d 4 -p cbr -e 1000 -c 1 -i 51 -a 1 -x {0.0 2.0 8 ------- null}
+ -t 0.5 -s 0 -d 4 -p cbr -e 1000 -c 1 -i 52 -a 1 -x {0.0 2.0 9 ------- null}
+ -t 0.5 -s 0 -d 4 -p cbr -e 1000 -c 1 -i 53 -a 1 -x {0.0 2.0 10 ------- null}
+ -t 0.5 -s 0 -d 4 -p cbr -e 1000 -c 1 -i 54 -a 1 -x {0.0 2.0 11 ------- null}
+ -t 0.5 -s 0 -d 4 -p cbr -e 1000 -c 1 -i 55 -a 1 -x {0.0 2.0 12 ------- null}
+ -t 0.5 -s 0 -d 4 -p cbr -e 1000 -c 1 -i 56 -a 1 -x {0.0 2.0 13 ------- null}
+ -t 0.5 -s 0 -d 4 -p cbr -e 1000 -c 1 -i 57 -a 1 -x {0.0 2.0 14 ------- null}
+ -t 0.5 -s 0 -d 4 -p cbr -e 1000 -c 1 -i 58 -a 1 -x {0.0 2.0 15 ------- null}
+ -t 0.5 -s 0 -d 4 -p cbr -e 1000 -c 1 -i 59 -a 1 -x {0.0 2.0 16 ------- null}
+ -t 0.5 -s 0 -d 4 -p cbr -e 1000 -c 1 -i 60 -a 1 -x {0.0 2.0 17 ------- null}
+ -t 0.5 -s 0 -d 4 -p cbr -e 1000 -c 1 -i 61 -a 1 -x {0.0 2.0 18 ------- null}
+ -t 0.5 -s 0 -d 4 -p cbr -e 1000 -c 1 -i 62 -a 1 -x {0.0 2.0 19 ------- null}
+ -t 0.5 -s 0 -d 4 -p cbr -e 1000 -c 1 -i 63 -a 1 -x {0.0 2.0 20 ------- null}
+ -t 0.5 -s 0 -d 4 -p cbr -e 1000 -c 1 -i 64 -a 1 -x {0.0 2.0 21 ------- null}
+ -t 0.5 -s 0 -d 4 -p cbr -e 1000 -c 1 -i 65 -a 1 -x {0.0 2.0 22 ------- null}
+ -t 0.5 -s 0 -d 4 -p cbr -e 1000 -c 1 -i 66 -a 1 -x {0.0 2.0 23 ------- null}
+ -t 0.5 -s 0 -d 4 -p cbr -e 1000 -c 1 -i 67 -a 1 -x {0.0 2.0 24 ------- null}
+ -t 0.5 -s 0 -d 4 -p cbr -e 1000 -c 1 -i 68 -a 1 -x {0.0 2.0 25 ------- null}
+ -t 0.5 -s 0 -d 4 -p cbr -e 1000 -c 1 -i 69 -a 1 -x {0.0 2.0 26 ------- null}
+ -t 0.5 -s 0 -d 4 -p cbr -e 1000 -c 1 -i 70 -a 1 -x {0.0 2.0 27 ------- null}
+ -t 0.5 -s 0 -d 4 -p cbr -e 1000 -c 1 -i 71 -a 1 -x {0.0 2.0 28 ------- null}
+ -t 0.5 -s 0 -d 4 -p cbr -e 1000 -c 1 -i 72 -a 1 -x {0.0 2.0 29 ------- null}
+ -t 0.5 -s 0 -d 4 -p cbr -e 1000 -c 1 -i 73 -a 1 -x {0.0 2.0 30 ------- null}
+ -t 0.5 -s 0 -d 4 -p cbr -e 1000 -c 1 -i 74 -a 1 -x {0.0 2.0 31 ------- null}
+ -t 0.5 -s 0 -d 4 -p cbr -e 1000 -c 1 -i 75 -a 1 -x {0.0 2.0 32 ------- null}
+ -t 0.5 -s 0 -d 4 -p cbr -e 1000 -c 1 -i 76 -a 1 -x {0.0 2.0 33 ------- null}
+ -t 0.5 -s 0 -d 4 -p cbr -e 1000 -c 1 -i 77 -a 1 -x {0.0 2.0 34 ------- null}
+ -t 0.5 -s 0 -d 4 -p cbr -e 1000 -c 1 -i 78 -a 1 -x {0.0 2.0 35 ------- null}
+ -t 0.5 -s 0 -d 4 -p cbr -e 1000 -c 1 -i 79 -a 1 -x {0.0 2.0 36 ------- null}
+ -t 0.5 -s 0 -d 4 -p cbr -e 1000 -c 1 -i 80 -a 1 -x {0.0 2.0 37 ------- null}
+ -t 0.5 -s 0 -d 4 -p cbr -e 1000 -c 1 -i 81 -a 1 -x {0.0 2.0 38 ------- null}
+ -t 0.5 -s 0 -d 4 -p cbr -e 1000 -c 1 -i 82 -a 1 -x {0.0 2.0 39 ------- null}
+ -t 0.5 -s 0 -d 4 -p cbr -e 1000 -c 1 -i 83 -a 1 -x {0.0 2.0 40 ------- null}
+ -t 0.5 -s 0 -d 4 -p cbr -e 1000 -c 1 -i 84 -a 1 -x {0.0 2.0 41 ------- null}
+ -t 0.5 -s 0 -d 4 -p cbr -e 1000 -c 1 -i 85 -a 1 -x {0.0 2.0 42 ------- null}
+ -t 0.5 -s 0 -d 4 -p cbr -e 1000 -c 1 -i 86 -a 1 -x {0.0 2.0 43 ------- null}
+ -t 0.5 -s 0 -d 4 -p cbr -e 1000 -c 1 -i 87 -a 1 -x {0.0 2.0 44 ------- null}
+ -t 0.5 -s 0 -d 4 -p cbr -e 1000 -c 1 -i 88 -a 1 -x {0.0 2.0 45 ------- null}
+ -t 0.5 -s 0 -d 4 -p cbr -e 1000 -c 1 -i 89 -a 1 -x {0.0 2.0 46 ------- null}
+ -t 0.5 -s 0 -d 4 -p cbr -e 1000 -c 1 -i 90 -a 1 -x {0.0 2.0 47 ------- null}
+ -t 0.5 -s 0 -d 4 -p cbr -e 1000 -c 1 -i 91 -a 1 -x {0.0 2.0 48 ------- null}
+ -t 0.5 -s 0 -d 4 -p cbr -e 1000 -c 1 -i 92 -a 1 -x {0.0 2.0 49 ------- null}
+ -t 0.5 -s 0 -d 4 -p cbr -e 1000 -c 1 -i 93 -a 1 -x {0.0 2.0 50 ------- null}
d -t 0.5 -s 0 -d 4 -p cbr -e 1000 -c 1 -i 93 -a 1 -x {0.0 2.0 50 ------- null}
+ -t 0.5 -s 0 -d 4 -p cbr -e 1000 -c 1 -i 94 -a 1 -x {0.0 2.0 51 ------- null}
d -t 0.5 -s 0 -d 4 -p cbr -e 1000 -c 1 -i 94 -a 1 -x {0.0 2.0 51 ------- null}
+ -t 0.5 -s 0 -d 4 -p cbr -e 1000 -c 1 -i 95 -a 1 -x {0.0 2.0 52 ------- null}
d -t 0.5 -s 0 -d 4 -p cbr -e 1000 -c 1 -i 95 -a 1 -x {0.0 2.0 52 ------- null}
+ -t 0.5 -s 0 -d 4 -p cbr -e 1000 -c 1 -i 96 -a 1 -x {0.0 2.0 53 ------- null}
d -t 0.5 -s 0 -d 4 -p cbr -e 1000 -c 1 -i 96 -a 1 -x {0.0 2.0 53 ------- null}
+ -t 0.5 -s 0 -d 4 -p cbr -e 1000 -c 1 -i 97 -a 1 -x {0.0 2.0 54 ------- null}
d -t 0.5 -s 0 -d 4 -p cbr -e 1000 -c 1 -i 97 -a 1 -x {0.0 2.0 54 ------- null}
+ -t 0.5 -s 0 -d 4 -p cbr -e 1000 -c 1 -i 98 -a 1 -x {0.0 2.0 55 ------- null}
d -t 0.5 -s 0 -d 4 -p cbr -e 1000 -c 1 -i 98 -a 1 -x {0.0 2.0 55 ------- null}
+ -t 0.5 -s 0 -d 4 -p cbr -e 1000 -c 1 -i 99 -a 1 -x {0.0 2.0 56 ------- null}
d -t 0.5 -s 0 -d 4 -p cbr -e 1000 -c 1 -i 99 -a 1 -x {0.0 2.0 56 ------- null}
+ -t 0.5 -s 0 -d 4 -p cbr -e 1000 -c 1 -i 100 -a 1 -x {0.0 2.0 57 ------- null}
d -t 0.5 -s 0 -d 4 -p cbr -e 1000 -c 1 -i 100 -a 1 -x {0.0 2.0 57 ------- null}
+ -t 0.5 -s 0 -d 4 -p cbr -e 1000 -c 1 -i 101 -a 1 -x {0.0 2.0 58 ------- null}
d -t 0.5 -s 0 -d 4 -p cbr -e 1000 -c 1 -i 101 -a 1 -x {0.0 2.0 58 ------- null}
+ -t 0.5 -s 0 -d 4 -p cbr -e 1000 -c 1 -i 102 -a 1 -x {0.0 2.0 59 ------- null}
d -t 0.5 -s 0 -d 4 -p cbr -e 1000 -c 1 -i 102 -a 1 -x {0.0 2.0 59 ------- null}
+ -t 0.5 -s 0 -d 4 -p cbr -e 1000 -c 1 -i 103 -a 1 -x {0.0 2.0 60 ------- null}
d -t 0.5 -s 0 -d 4 -p cbr -e 1000 -c 1 -i 103 -a 1 -x {0.0 2.0 60 ------- null}
+ -t 0.5 -s 0 -d 4 -p cbr -e 1000 -c 1 -i 104 -a 1 -x {0.0 2.0 61 ------- null}
d -t 0.5 -s 0 -d 4 -p cbr -e 1000 -c 1 -i 104 -a 1 -x {0.0 2.0 61 ------- null}
+ -t 0.5 -s 0 -d 4 -p cbr -e 1000 -c 1 -i 105 -a 1 -x {0.0 2.0 62 ------- null}
d -t 0.5 -s 0 -d 4 -p cbr -e 1000 -c 1 -i 105 -a 1 -x {0.0 2.0 62 ------- null}
+ -t 0.5 -s 0 -d 4 -p cbr -e 1000 -c 1 -i 106 -a 1 -x {0.0 2.0 63 ------- null}
d -t 0.5 -s 0 -d 4 -p cbr -e 1000 -c 1 -i 106 -a 1 -x {0.0 2.0 63 ------- null}
+ -t 0.5 -s 0 -d 4 -p cbr -e 1000 -c 1 -i 107 -a 1 -x {0.0 2.0 64 ------- null}
d -t 0.5 -s 0 -d 4 -p cbr -e 1000 -c 1 -i 107 -a 1 -x {0.0 2.0 64 ------- null}
+ -t 0.5 -s 0 -d 4 -p cbr -e 1000 -c 1 -i 108 -a 1 -x {0.0 2.0 65 ------- null}
d -t 0.5 -s 0 -d 4 -p cbr -e 1000 -c 1 -i 108 -a 1 -x {0.0 2.0 65 ------- null}
+ -t 0.5 -s 0 -d 4 -p cbr -e 1000 -c 1 -i 109 -a 1 -x {0.0 2.0 66 ------- null}
d -t 0.5 -s 0 -d 4 -p cbr -e 1000 -c 1 -i 109 -a 1 -x {0.0 2.0 66 ------- null}
+ -t 0.5 -s 0 -d 4 -p cbr -e 1000 -c 1 -i 110 -a 1 -x {0.0 2.0 67 ------- null}
d -t 0.5 -s 0 -d 4 -p cbr -e 1000 -c 1 -i 110 -a 1 -x {0.0 2.0 67 ------- null}
+ -t 0.5 -s 0 -d 4 -p cbr -e 1000 -c 1 -i 111 -a 1 -x {0.0 2.0 68 ------- null}
d -t 0.5 -s 0 -d 4 -p cbr -e 1000 -c 1 -i 111 -a 1 -x {0.0 2.0 68 ------- null}
+ -t 0.5 -s 0 -d 4 -p cbr -e 1000 -c 1 -i 112 -a 1 -x {0.0 2.0 69 ------- null}
d -t 0.5 -s 0 -d 4 -p cbr -e 1000 -c 1 -i 112 -a 1 -x {0.0 2.0 69 ------- null}
+ -t 0.5 -s 0 -d 4 -p cbr -e 1000 -c 1 -i 113 -a 1 -x {0.0 2.0 70 ------- null}
d -t 0.5 -s 0 -d 4 -p cbr -e 1000 -c 1 -i 113 -a 1 -x {0.0 2.0 70 ------- null}
+ -t 0.5 -s 0 -d 4 -p cbr -e 1000 -c 1 -i 114 -a 1 -x {0.0 2.0 71 ------- null}
d -t 0.5 -s 0 -d 4 -p cbr -e 1000 -c 1 -i 114 -a 1 -x {0.0 2.0 71 ------- null}
+ -t 0.5 -s 0 -d 4 -p cbr -e 1000 -c 1 -i 115 -a 1 -x {0.0 2.0 72 ------- null}
d -t 0.5 -s 0 -d 4 -p cbr -e 1000 -c 1 -i 115 -a 1 -x {0.0 2.0 72 ------- null}
+ -t 0.5 -s 0 -d 4 -p cbr -e 1000 -c 1 -i 116 -a 1 -x {0.0 2.0 73 ------- null}
d -t 0.5 -s 0 -d 4 -p cbr -e 1000 -c 1 -i 116 -a 1 -x {0.0 2.0 73 ------- null}
+ -t 0.5 -s 0 -d 4 -p cbr -e 1000 -c 1 -i 117 -a 1 -x {0.0 2.0 74 ------- null}
d -t 0.5 -s 0 -d 4 -p cbr -e 1000 -c 1 -i 117 -a 1 -x {0.0 2.0 74 ------- null}
+ -t 0.5 -s 0 -d 4 -p cbr -e 1000 -c 1 -i 118 -a 1 -x {0.0 2.0 75 ------- null}
d -t 0.5 -s 0 -d 4 -p cbr -e 1000 -c 1 -i 118 -a 1 -x {0.0 2.0 75 ------- null}
+ -t 0.5 -s 0 -d 4 -p cbr -e 1000 -c 1 -i 119 -a 1 -x {0.0 2.0 76 ------- null}
d -t 0.5 -s 0 -d 4 -p cbr -e 1000 -c 1 -i 119 -a 1 -x {0.0 2.0 76 ------- null}
+ -t 0.5 -s 0 -d 4 -p cbr -e 1000 -c 1 -i 120 -a 1 -x {0.0 2.0 77 ------- null}
d -t 0.5 -s 0 -d 4 -p cbr -e 1000 -c 1 -i 120 -a 1 -x {0.0 2.0 77 ------- null}
+ -t 0.5 -s 0 -d 4 -p cbr -e 1000 -c 1 -i 121 -a 1 -x {0.0 2.0 78 ------- null}
d -t 0.5 -s 0 -d 4 -p cbr -e 1000 -c 1 -i 121 -a 1 -x {0.0 2.0 78 ------- null}
+ -t 0.5 -s 0 -d 4 -p cbr -e 1000 -c 1 -i 122 -a 1 -x {0.0 2.0 79 ------- null}
d -t 0.5 -s 0 -d 4 -p cbr -e 1000 -c 1 -i 122 -a 1 -x {0.0 2.0 79 ------- null}
+ -t 0.5 -s 0 -d 4 -p cbr -e 1000 -c 1 -i 123 -a 1 -x {0.0 2.0 80 ------- null}
d -t 0.5 -s 0 -d 4 -p cbr -e 1000 -c 1 -i 123 -a 1 -x {0.0 2.0 80 ------- null}
+ -t 0.5 -s 0 -d 4 -p cbr -e 1000 -c 1 -i 124 -a 1 -x {0.0 2.0 81 ------- null}
d -t 0.5 -s 0 -d 4 -p cbr -e 1000 -c 1 -i 124 -a 1 -x {0.0 2.0 81 ------- null}
+ -t 0.5 -s 0 -d 4 -p cbr -e 1000 -c 1 -i 125 -a 1 -x {0.0 2.0 82 ------- null}
d -t 0.5 -s 0 -d 4 -p cbr -e 1000 -c 1 -i 125 -a 1 -x {0.0 2.0 82 ------- null}
+ -t 0.5 -s 0 -d 4 -p cbr -e 1000 -c 1 -i 126 -a 1 -x {0.0 2.0 83 ------- null}
d -t 0.5 -s 0 -d 4 -p cbr -e 1000 -c 1 -i 126 -a 1 -x {0.0 2.0 83 ------- null}
+ -t 0.5 -s 0 -d 4 -p cbr -e 1000 -c 1 -i 127 -a 1 -x {0.0 2.0 84 ------- null}
d -t 0.5 -s 0 -d 4 -p cbr -e 1000 -c 1 -i 127 -a 1 -x {0.0 2.0 84 ------- null}
+ -t 0.5 -s 0 -d 4 -p cbr -e 1000 -c 1 -i 128 -a 1 -x {0.0 2.0 85 ------- null}
d -t 0.5 -s 0 -d 4 -p cbr -e 1000 -c 1 -i 128 -a 1 -x {0.0 2.0 85 ------- null}
+ -t 0.5 -s 0 -d 4 -p cbr -e 1000 -c 1 -i 129 -a 1 -x {0.0 2.0 86 ------- null}
d -t 0.5 -s 0 -d 4 -p cbr -e 1000 -c 1 -i 129 -a 1 -x {0.0 2.0 86 ------- null}
+ -t 0.5 -s 0 -d 4 -p cbr -e 1000 -c 1 -i 130 -a 1 -x {0.0 2.0 87 ------- null}
d -t 0.5 -s 0 -d 4 -p cbr -e 1000 -c 1 -i 130 -a 1 -x {0.0 2.0 87 ------- null}
+ -t 0.5 -s 0 -d 4 -p cbr -e 1000 -c 1 -i 131 -a 1 -x {0.0 2.0 88 ------- null}
d -t 0.5 -s 0 -d 4 -p cbr -e 1000 -c 1 -i 131 -a 1 -x {0.0 2.0 88 ------- null}
+ -t 0.5 -s 0 -d 4 -p cbr -e 1000 -c 1 -i 132 -a 1 -x {0.0 2.0 89 ------- null}
d -t 0.5 -s 0 -d 4 -p cbr -e 1000 -c 1 -i 132 -a 1 -x {0.0 2.0 89 ------- null}
+ -t 0.5 -s 0 -d 4 -p cbr -e 1000 -c 1 -i 133 -a 1 -x {0.0 2.0 90 ------- null}
d -t 0.5 -s 0 -d 4 -p cbr -e 1000 -c 1 -i 133 -a 1 -x {0.0 2.0 90 ------- null}
+ -t 0.5 -s 0 -d 4 -p cbr -e 1000 -c 1 -i 134 -a 1 -x {0.0 2.0 91 ------- null}
d -t 0.5 -s 0 -d 4 -p cbr -e 1000 -c 1 -i 134 -a 1 -x {0.0 2.0 91 ------- null}
+ -t 0.5 -s 0 -d 4 -p cbr -e 1000 -c 1 -i 135 -a 1 -x {0.0 2.0 92 ------- null}
d -t 0.5 -s 0 -d 4 -p cbr -e 1000 -c 1 -i 135 -a 1 -x {0.0 2.0 92 ------- null}
+ -t 0.5 -s 0 -d 4 -p cbr -e 1000 -c 1 -i 136 -a 1 -x {0.0 2.0 93 ------- null}
d -t 0.5 -s 0 -d 4 -p cbr -e 1000 -c 1 -i 136 -a 1 -x {0.0 2.0 93 ------- null}
+ -t 0.5 -s 0 -d 4 -p cbr -e 1000 -c 1 -i 137 -a 1 -x {0.0 2.0 94 ------- null}
d -t 0.5 -s 0 -d 4 -p cbr -e 1000 -c 1 -i 137 -a 1 -x {0.0 2.0 94 ------- null}