V -t * -v 1.0a5 -a 0
A -t * -n 1 -p 0 -o 0x7fffffff -c 30 -a 1
A -t * -h 1 -m 1073741823 -s 0
c -t * -i 1 -n Red
c -t * -i 2 -n Green
c -t * -i 3 -n Blue
n -t * -a 0 -s 0 -S UP -v circle -c black -i black
n -t * -a 1 -s 1 -S UP -v circle -c black -i black
n -t * -a 2 -s 2 -S UP -v circle -c black -i black
n -t * -a 3 -s 3 -S UP -v circle -c black -i black
l -t * -s 0 -d 1 -S UP -r 1000000 -D 0.01 -c black
l -t * -s 1 -d 2 -S UP -r 155000000 -D 0.002 -c black
l -t * -s 2 -d 3 -S UP -r 1000000 -D 0.01 -c black
q -t * -s 2 -d 1 -a 0.5
q -t * -s 1 -d 2 -a 0.5
+ -t 0.1 -s 0 -d 1 -p tcp -e 40 -c 1 -i 0 -a 1 -x {0.0 3.0 0 ------- null}
- -t 0.1 -s 0 -d 1 -p tcp -e 40 -c 1 -i 0 -a 1 -x {0.0 3.0 0 ------- null}
h -t 0.1 -s 0 -d 1 -p tcp -e 40 -c 1 -i 0 -a 1 -x {0.0 3.0 -1 ------- null}
r -t 0.11032 -s 0 -d 1 -p tcp -e 40 -c 1 -i 0 -a 1 -x {0.0 3.0 0 ------- null}
+ -t 0.11032 -s 1 -d 2 -p tcp -e 40 -c 1 -i 0 -a 1 -x {0.0 3.0 0 ------- null}
- -t 0.11032 -s 1 -d 2 -p tcp -e 40 -c 1 -i 0 -a 1 -x {0.0 3.0 0 ------- null}
h -t 0.11032 -s 1 -d 2 -p tcp -e 40 -c 1 -i 0 -a 1 -x {0.0 3.0 -1 ------- null}
r -t 0.112322064516129 -s 1 -d 2 -p tcp -e 40 -c 1 -i 0 -a 1 -x {0.0 3.0 0 ------- null}
+ -t 0.112322064516129 -s 2 -d 3 -p tcp -e 40 -c 1 -i 0 -a 1 -x {0.0 3.0 0 ------- null}
- -t 0.112322064516129 -s 2 -d 3 -p tcp -e 40 -c 1 -i 0 -a 1 -x {0.0 3.0 0 ------- null}
h -t 0.112322064516129 -s 2 -d 3 -p tcp -e 40 -c 1 -i 0 -a 1 -x {0.0 3.0 -1 ------- null}
r -t 0.122642064516129 -s 2 -d 3 -p tcp -e 40 -c 1 -i 0 -a 1 -x {0.0 3.0 0 ------- null}
+ -t 0.122642064516129 -s 3 -d 2 -p ack -e 40 -c 1 -i 1 -a 1 -x {3.0 0.0 0 ------- null}
- -t 0.122642064516129 -s 3 -d 2 -p ack -e 40 -c 1 -i 1 -a 1 -x {3.0 0.0 0 ------- null}
h -t 0.122642064516129 -s 3 -d 2 -p ack -e 40 -c 1 -i 1 -a 1 -x {3.0 0.0 -1 ------- null}
r -t 0.132962064516129 -s 3 -d 2 -p ack -e 40 -c 1 -i 1 -a 1 -x {3.0 0.0 0 ------- null}
+ -t 0.132962064516129 -s 2 -d 1 -p ack -e 40 -c 1 -i 1 -a 1 -x {3.0 0.0 0 ------- null}
- -t 0.132962064516129 -s 2 -d 1 -p ack -e 40 -c 1 -i 1 -a 1 -x {3.0 0.0 0 ------- null}
h -t 0.132962064516129 -s 2 -d 1 -p ack -e 40 -c 1 -i 1 -a 1 -x {3.0 0.0 -1 ------- null}
r -t 0.134964129032258 -s 2 -d 1 -p ack -e 40 -c 1 -i 1 -a 1 -x {3.0 0.0 0 ------- null}
+ -t 0.134964129032258 -s 1 -d 0 -p ack -e 40 -c 1 -i 1 -a 1 -x {3.0 0.0 0 ------- null}
- -t 0.134964129032258 -s 1 -d 0 -p ack -e 40 -c 1 -i 1 -a 1 -x {3.0 0.0 0 ------- null}
h -t 0.134964129032258 -s 1 -d 0 -p ack -e 40 -c 1 -i 1 -a 1 -x {3.0 0.0 -1 ------- null}
r -t 0.145284129032258 -s 1 -d 0 -p ack -e 40 -c 1 -i 1 -a 1 -x {3.0 0.0 0 ------- null}
+ -t 0.145284129032258 -s 0 -d 1 -p tcp -e 1000 -c 1 -i 2 -a 1 -x {0.0 3.0 1 ------- null}
- -t 0.145284129032258 -s 0 -d 1 -p tcp -e 1000 -c 1 -i 2 -a 1 -x {0.0 3.0 1 ------- null}
h -t 0.145284129032258 -s 0 -d 1 -p tcp -e 1000 -c 1 -i 2 -a 1 -x {0.0 3.0 -1 ------- null}
+ -t 0.145284129032258 -s 0 -d 1 -p tcp -e 1000 -c 1 -i 3 -a 1 -x {0.0 3.0 2 ------- null}
- -t 0.153284129032258 -s 0 -d 1 -p tcp -e 1000 -c 1 -i 3 -a 1 -x {0.0 3.0 2 ------- null}
h -t 0.153284129032258 -s 0 -d 1 -p tcp -e 1000 -c 1 -i 3 -a 1 -x {0.0 3.0 -1 ------- null}
r -t 0.163284129032258 -s 0 -d 1 -p tcp -e 1000 -c 1 -i 2 -a 1 -x {0.0 3.0 1 ------- null}
+ -t 0.163284129032258 -s 1 -d 2 -p tcp -e 1000 -c 1 -i 2 -a 1 -x {0.0 3.0 1 ------- null}
- -t 0.163284129032258 -s 1 -d 2 -p tcp -e 1000 -c 1 -i 2 -a 1 -x {0.0 3.0 1 ------- null}
h -t 0.163284129032258 -s 1 -d 2 -p tcp -e 1000 -c 1 -i 2 -a 1 -x {0.0 3.0 -1 ------- null}
r -t 0.165335741935484 -s 1 -d 2 -p tcp -e 1000 -c 1 -i 2 -a 1 -x {0.0 3.0 1 ------- null}
+ -t 0.165335741935484 -s 2 -d 3 -p tcp -e 1000 -c 1 -i 2 -a 1 -x {0.0 3.0 1 ------- null}
- -t 0.165335741935484 -s 2 -d 3 -p tcp -e 1000 -c 1 -i 2 -a 1 -x {0.0 3.0 1 ------- null}
h -t 0.165335741935484 -s 2 -d 3 -p tcp -e 1000 -c 1 -i 2 -a 1 -x {0.0 3.0 -1 ------- null}
r -t 0.171284129032258 -s 0 -d 1 -p tcp -e 1000 -c 1 -i 3 -a 1 -x {0.0 3.0 2 ------- null}
+ -t 0.171284129032258 -s 1 -d 2 -p tcp -e 1000 -c 1 -i 3 -a 1 -x {0.0 3.0 2 ------- null}
- -t 0.171284129032258 -s 1 -d 2 -p tcp -e 1000 -c 1 -i 3 -a 1 -x {0.0 3.0 2 ------- null}
h -t 0.171284129032258 -s 1 -d 2 -p tcp -e 1000 -c 1 -i 3 -a 1 -x {0.0 3.0 -1 ------- null}
r -t 0.173335741935484 -s 1 -d 2 -p tcp -e 1000 -c 1 -i 3 -a 1 -x {0.0 3.0 2 ------- null}
+ -t 0.173335741935484 -s 2 -d 3 -p tcp -e 1000 -c 1 -i 3 -a 1 -x {0.0 3.0 2 ------- null}
- -t 0.173335741935484 -s 2 -d 3 -p tcp -e 1000 -c 1 -i 3 -a 1 -x {0.0 3.0 2 ------- null}
h -t 0.173335741935484 -s 2 -d 3 -p tcp -e 1000 -c 1 -i 3 -a 1 -x {0.0 3.0 -1 ------- null}
r -t 0.183335741935484 -s 2 -d 3 -p tcp -e 1000 -c 1 -i 2 -a 1 -x {0.0 3.0 1 ------- null}
+ -t 0.183335741935484 -s 3 -d 2 -p ack -e 40 -c 1 -i 4 -a 1 -x {3.0 0.0 1 ------- null}
- -t 0.183335741935484 -s 3 -d 2 -p ack -e 40 -c 1 -i 4 -a 1 -x {3.0 0.0 1 ------- null}
h -t 0.183335741935484 -s 3 -d 2 -p ack -e 40 -c 1 -i 4 -a 1 -x {3.0 0.0 -1 ------- null}
r -t 0.191335741935484 -s 2 -d 3 -p tcp -e 1000 -c 1 -i 3 -a 1 -x {0.0 3.0 2 ------- null}
+ -t 0.191335741935484 -s 3 -d 2 -p ack -e 40 -c 1 -i 5 -a 1 -x {3.0 0.0 2 ------- null}
- -t 0.191335741935484 -s 3 -d 2 -p ack -e 40 -c 1 -i 5 -a 1 -x {3.0 0.0 2 ------- null}
h -t 0.191335741935484 -s 3 -d 2 -p ack -e 40 -c 1 -i 5 -a 1 -x {3.0 0.0 -1 ------- null}
r -t 0.193655741935484 -s 3 -d 2 -p ack -e 40 -c 1 -i 4 -a 1 -x {3.0 0.0 1 ------- null}
+ -t 0.193655741935484 -s 2 -d 1 -p ack -e 40 -c 1 -i 4 -a 1 -x {3.0 0.0 1 ------- null}
- -t 0.193655741935484 -s 2 -d 1 -p ack -e 40 -c 1 -i 4 -a 1 -x {3.0 0.0 1 ------- null}
h -t 0.193655741935484 -s 2 -d 1 -p ack -e 40 -c 1 -i 4 -a 1 -x {3.0 0.0 -1 ------- null}
r -t 0.195657806451613 -s 2 -d 1 -p ack -e 40 -c 1 -i 4 -a 1 -x {3.0 0.0 1 ------- null}
+ -t 0.195657806451613 -s 1 -d 0 -p ack -e 40 -c 1 -i 4 -a 1 -x {3.0 0.0 1 ------- null}
- -t 0.195657806451613 -s 1 -d 0 -p ack -e 40 -c 1 -i 4 -a 1 -x {3.0 0.0 1 ------- null}
h -t 0.195657806451613 -s 1 -d 0 -p ack -e 40 -c 1 -i 4 -a 1 -x {3.0 0.0 -1 ------- null}
r -t 0.201655741935484 -s 3 -d 2 -p ack -e 40 -c 1 -i 5 -a 1 -x {3.0 0.0 2 ------- null}
+ -t 0.201655741935484 -s 2 -d 1 -p ack -e 40 -c 1 -i 5 -a 1 -x {3.0 0.0 2 ------- null}
- -t 0.201655741935484 -s 2 -d 1 -p ack -e 40 -c 1 -i 5 -a 1 -x {3.0 0.0 2 ------- null}
h -t 0.201655741935484 -s 2 -d 1 -p ack -e 40 -c 1 -i 5 -a 1 -x {3.0 0.0 -1 ------- null}
r -t 0.203657806451613 -s 2 -d 1 -p ack -e 40 -c 1 -i 5 -a 1 -x {3.0 0.0 2 ------- null}
+ -t 0.203657806451613 -s 1 -d 0 -p ack -e 40 -c 1 -i 5 -a 1 -x {3.0 0.0 2 ------- null}
- -t 0.203657806451613 -s 1 -d 0 -p ack -e 40 -c 1 -i 5 -a 1 -x {3.0 0.0 2 ------- null}
h -t 0.203657806451613 -s 1 -d 0 -p ack -e 40 -c 1 -i 5 -a 1 -x {3.0 0.0 -1 ------- null}
r -t 0.205977806451613 -s 1 -d 0 -p ack -e 40 -c 1 -i 4 -a 1 -x {3.0 0.0 1 ------- null}
+ -t 0.205977806451613 -s 0 -d 1 -p tcp -e 1000 -c 1 -i 6 -a 1 -x {0.0 3.0 3 ------- null}
- -t 0.205977806451613 -s 0 -d 1 -p tcp -e 1000 -c 1 -i 6 -a 1 -x {0.0 3.0 3 ------- null}
h -t 0.205977806451613 -s 0 -d 1 -p tcp -e 1000 -c 1 -i 6 -a 1 -x {0.0 3.0 -1 ------- null}
+ -t 0.205977806451613 -s 0 -d 1 -p tcp -e 1000 -c 1 -i 7 -a 1 -x {0.0 3.0 4 ------- null}
+ -t 0.205977806451613 -s 0 -d 1 -p tcp -e 1000 -c 1 -i 8 -a 1 -x {0.0 3.0 5 ------- null}
+ -t 0.205977806451613 -s 0 -d 1 -p tcp -e 1000 -c 1 -i 9 -a 1 -x {0.0 3.0 6 ------- null}
+ -t 0.205977806451613 -s 0 -d 1 -p tcp -e 1000 -c 1 -i 10 -a 1 -x {0.0 3.0 7 ------- null}
+ -t 0.205977806451613 -s 0 -d 1 -p tcp -e 1000 -c 1 -i 11 -a 1 -x {0.0 3.0 8 ------- null}
+ -t 0.205977806451613 -s 0 -d 1 -p tcp -e 1000 -c 1 -i 12 -a 1 -x {0.0 3.0 9 ------- null}
+ -t 0.205977806451613 -s 0 -d 1 -p tcp -e 1000 -c 1 -i 13 -a 1 -x {0.0 3.0 10 ------- null}
+ -t 0.205977806451613 -s 0 -d 1 -p tcp -e 1000 -c 1 -i 14 -a 1 -x {0.0 3.0 11 ------- null}
+ -t 0.205977806451613 -s 0 -d 1 -p tcp -e 1000 -c 1 -i 15 -a 1 -x {0.0 3.0 12 ------- null}
+ -t 0.205977806451613 -s 0 -d 1 -p tcp -e 1000 -c 1 -i 16 -a 1 -x {0.0 3.0 13 ------- null}
+ -t 0.205977806451613 -s 0 -d 1 -p tcp -e 1000 -c 1 -i 17 -a 1 -x {0.0 3.0 14 ------- null}
+ -t 0.205977806451613 -s 0 -d 1 -p tcp -e 1000 -c 1 -i 18 -a 1 -x {0.0 3.0 15 ------- null}
+ -t 0.205977806451613 -s 0 -d 1 -p tcp -e 1000 -c 1 -i 19 -a 1 -x {0.0 3.0 16 ------- null}
+ -t 0.205977806451613 -s 0 -d 1 -p tcp -e 1000 -c 1 -i 20 -a 1 -x {0.0 3.0 17 ------- null}
+ -t 0.205977806451613 -s 0 -d 1 -p tcp -e 1000 -c 1 -i 21 -a 1 -x {0.0 3.0 18 ------- null}
+ -t 0.205977806451613 -s 0 -d 1 -p tcp -e 1000 -c 1 -i 22 -a 1 -x {0.0 3.0 19 ------- null}
+ -t 0.205977806451613 -s 0 -d 1 -p tcp -e 1000 -c 1 -i 23 -a 1 -x {0.0 3.0 20 ------- null}
+ -t 0.205977806451613 -s 0 -d 1 -p tcp -e 1000 -c 1 -i 24 -a 1 -x {0.0 3.0 21 ------- null}
r -t 0.213977806451613 -s 1 -d 0 -p ack -e 40 -c 1 -i 5 -a 1 -x {3.0 0.0 2 ------- null}
+ -t 0.213977806451613 -s 0 -d 1 -p tcp -e 1000 -c 1 -i 25 -a 1 -x {0.0 3.0 22 ------- null}
- -t 0.213977806451613 -s 0 -d 1 -p tcp -e 1000 -c 1 -i 7 -a 1 -x {0.0 3.0 4 ------- null}
h -t 0.213977806451613 -s 0 -d 1 -p tcp -e 1000 -c 1 -i 7 -a 1 -x {0.0 3.0 -1 ------- null}
- -t 0.221977806451613 -s 0 -d 1 -p tcp -e 1000 -c 1 -i 8 -a 1 -x {0.0 3.0 5 ------- null}
h -t 0.221977806451613 -s 0 -d 1 -p tcp -e 1000 -c 1 -i 8 -a 1 -x {0.0 3.0 -1 ------- null}
r -t 0.223977806451613 -s 0 -d 1 -p tcp -e 1000 -c 1 -i 6 -a 1 -x {0.0 3.0 3 ------- null}
+ -t 0.223977806451613 -s 1 -d 2 -p tcp -e 1000 -c 1 -i 6 -a 1 -x {0.0 3.0 3 ------- null}
- -t 0.223977806451613 -s 1 -d 2 -p tcp -e 1000 -c 1 -i 6 -a 1 -x {0.0 3.0 3 ------- null}
h -t 0.223977806451613 -s 1 -d 2 -p tcp -e 1000 -c 1 -i 6 -a 1 -x {0.0 3.0 -1 ------- null}
r -t 0.226029419354839 -s 1 -d 2 -p tcp -e 1000 -c 1 -i 6 -a 1 -x {0.0 3.0 3 ------- null}
+ -t 0.226029419354839 -s 2 -d 3 -p tcp -e 1000 -c 1 -i 6 -a 1 -x {0.0 3.0 3 ------- null}
- -t 0.226029419354839 -s 2 -d 3 -p tcp -e 1000 -c 1 -i 6 -a 1 -x {0.0 3.0 3 ------- null}
h -t 0.226029419354839 -s 2 -d 3 -p tcp -e 1000 -c 1 -i 6 -a 1 -x {0.0 3.0 -1 ------- null}
- -t 0.229977806451613 -s 0 -d 1 -p tcp -e 1000 -c 1 -i 9 -a 1 -x {0.0 3.0 6 ------- null}
h -t 0.229977806451613 -s 0 -d 1 -p tcp -e 1000 -c 1 -i 9 -a 1 -x {0.0 3.0 -1 ------- null}
r -t 0.231977806451613 -s 0 -d 1 -p tcp -e 1000 -c 1 -i 7 -a 1 -x {0.0 3.0 4 ------- null}
+ -t 0.231977806451613 -s 1 -d 2 -p tcp -e 1000 -c 1 -i 7 -a 1 -x {0.0 3.0 4 ------- null}
- -t 0.231977806451613 -s 1 -d 2 -p tcp -e 1000 -c 1 -i 7 -a 1 -x {0.0 3.0 4 ------- null}
h -t 0.231977806451613 -s 1 -d 2 -p tcp -e 1000 -c 1 -i 7 -a 1 -x {0.0 3.0 -1 ------- null}
r -t 0.234029419354839 -s 1 -d 2 -p tcp -e 1000 -c 1 -i 7 -a 1 -x {0.0 3.0 4 ------- null}
+ -t 0.234029419354839 -s 2 -d 3 -p tcp -e 1000 -c 1 -i 7 -a 1 -x {0.0 3.0 4 ------- null}
- -t 0.234029419354839 -s 2 -d 3 -p tcp -e 1000 -c 1 -i 7 -a 1 -x {0.0 3.0 4 ------- null}
h -t 0.234029419354839 -s 2 -d 3 -p tcp -e 1000 -c 1 -i 7 -a 1 -x {0.0 3.0 -1 ------- null}
- -t 0.237977806451613 -s 0 -d 1 -p tcp -e 1000 -c 1 -i 10 -a 1 -x {0.0 3.0 7 ------- null}
h -t 0.237977806451613 -s 0 -d 1 -p tcp -e 1000 -c 1 -i 10 -a 1 -x {0.0 3.0 -1 ------- null}
r -t 0.239977806451613 -s 0 -d 1 -p tcp -e 1000 -c 1 -i 8 -a 1 -x {0.0 3.0 5 ------- null}
+ -t 0.239977806451613 -s 1 -d 2 -p tcp -e 1000 -c 1 -i 8 -a 1 -x {0.0 3.0 5 ------- null}
- -t 0.239977806451613 -s 1 -d 2 -p tcp -e 1000 -c 1 -i 8 -a 1 -x {0.0 3.0 5 ------- null}
h -t 0.239977806451613 -s 1 -d 2 -p tcp -e 1000 -c 1 -i 8 -a 1 -x {0.0 3.0 -1 ------- null}
r -t 0.242029419354839 -s 1 -d 2 -p tcp -e 1000 -c 1 -i 8 -a 1 -x {0.0 3.0 5 ------- null}
+ -t 0.242029419354839 -s 2 -d 3 -p tcp -e 1000 -c 1 -i 8 -a 1 -x {0.0 3.0 5 ------- null}
- -t 0.242029419354839 -s 2 -d 3 -p tcp -e 1000 -c 1 -i 8 -a 1 -x {0.0 3.0 5 ------- null}
h -t 0.242029419354839 -s 2 -d 3 -p tcp -e 1000 -c 1 -i 8 -a 1 -x {0.0 3.0 -1 ------- null}
r -t 0.244029419354839 -s 2 -d 3 -p tcp -e 1000 -c 1 -i 6 -a 1 -x {0.0 3.0 3 ------- null}
+ -t 0.244029419354839 -s 3 -d 2 -p ack -e 40 -c 1 -i 26 -a 1 -x {3.0 0.0 3 ------- null}
- -t 0.244029419354839 -s 3 -d 2 -p ack -e 40 -c 1 -i 26 -a 1 -x {3.0 0.0 3 ------- null}
h -t 0.244029419354839 -s 3 -d 2 -p ack -e 40 -c 1 -i 26 -a 1 -x {3.0 0.0 -1 ------- null}
- -t 0.245977806451613 -s 0 -d 1 -p tcp -e 1000 -c 1 -i 11 -a 1 -x {0.0 3.0 8 ------- null}
h -t 0.245977806451613 -s 0 -d 1 -p tcp -e 1000 -c 1 -i 11 -a 1 -x {0.0 3.0 -1 ------- null}
r -t 0.247977806451613 -s 0 -d 1 -p tcp -e 1000 -c 1 -i 9 -a 1 -x {0.0 3.0 6 ------- null}
+ -t 0.247977806451613 -s 1 -d 2 -p tcp -e 1000 -c 1 -i 9 -a 1 -x {0.0 3.0 6 ------- null}
- -t 0.247977806451613 -s 1 -d 2 -p tcp -e 1000 -c 1 -i 9 -a 1 -x {0.0 3.0 6 ------- null}
h -t 0.247977806451613 -s 1 -d 2 -p tcp -e 1000 -c 1 -i 9 -a 1 -x {0.0 3.0 -1 ------- null}
r -t 0.250029419354839 -s 1 -d 2 -p tcp -e 1000 -c 1 -i 9 -a 1 -x {0.0 3.0 6 ------- null}
+ -t 0.250029419354839 -s 2 -d 3 -p tcp -e 1000 -c 1 -i 9 -a 1 -x {0.0 3.0 6 ------- null}
- -t 0.250029419354839 -s 2 -d 3 -p tcp -e 1000 -c 1 -i 9 -a 1 -x {0.0 3.0 6 ------- null}
h -t 0.250029419354839 -s 2 -d 3 -p tcp -e 1000 -c 1 -i 9 -a 1 -x {0.0 3.0 -1 ------- null}
r -t 0.252029419354839 -s 2 -d 3 -p tcp -e 1000 -c 1 -i 7 -a 1 -x {0.0 3.0 4 ------- null}
+ -t 0.252029419354839 -s 3 -d 2 -p ack -e 40 -c 1 -i 27 -a 1 -x {3.0 0.0 4 ------- null}
- -t 0.252029419354839 -s 3 -d 2 -p ack -e 40 -c 1 -i 27 -a 1 -x {3.0 0.0 4 ------- null}
h -t 0.252029419354839 -s 3 -d 2 -p ack -e 40 -c 1 -i 27 -a 1 -x {3.0 0.0 -1 ------- null}
- -t 0.253977806451613 -s 0 -d 1 -p tcp -e 1000 -c 1 -i 12 -a 1 -x {0.0 3.0 9 ------- null}
h -t 0.253977806451613 -s 0 -d 1 -p tcp -e 1000 -c 1 -i 12 -a 1 -x {0.0 3.0 -1 ------- null}
r -t 0.254349419354839 -s 3 -d 2 -p ack -e 40 -c 1 -i 26 -a 1 -x {3.0 0.0 3 ------- null}
+ -t 0.254349419354839 -s 2 -d 1 -p ack -e 40 -c 1 -i 26 -a 1 -x {3.0 0.0 3 ------- null}
- -t 0.254349419354839 -s 2 -d 1 -p ack -e 40 -c 1 -i 26 -a 1 -x {3.0 0.0 3 ------- null}
h -t 0.254349419354839 -s 2 -d 1 -p ack -e 40 -c 1 -i 26 -a 1 -x {3.0 0.0 -1 ------- null}
r -t 0.255977806451613 -s 0 -d 1 -p tcp -e 1000 -c 1 -i 10 -a 1 -x {0.0 3.0 7 ------- null}
+ -t 0.255977806451613 -s 1 -d 2 -p tcp -e 1000 -c 1 -i 10 -a 1 -x {0.0 3.0 7 ------- null}
- -t 0.255977806451613 -s 1 -d 2 -p tcp -e 1000 -c 1 -i 10 -a 1 -x {0.0 3.0 7 ------- null}
h -t 0.255977806451613 -s 1 -d 2 -p tcp -e 1000 -c 1 -i 10 -a 1 -x {0.0 3.0 -1 ------- null}
r -t 0.256351483870968 -s 2 -d 1 -p ack -e 40 -c 1 -i 26 -a 1 -x {3.0 0.0 3 ------- null}
+ -t 0.256351483870968 -s 1 -d 0 -p ack -e 40 -c 1 -i 26 -a 1 -x {3.0 0.0 3 ------- null}
- -t 0.256351483870968 -s 1 -d 0 -p ack -e 40 -c 1 -i 26 -a 1 -x {3.0 0.0 3 ------- null}
h -t 0.256351483870968 -s 1 -d 0 -p ack -e 40 -c 1 -i 26 -a 1 -x {3.0 0.0 -1 ------- null}
r -t 0.258029419354839 -s 1 -d 2 -p tcp -e 1000 -c 1 -i 10 -a 1 -x {0.0 3.0 7 ------- null}
+ -t 0.258029419354839 -s 2 -d 3 -p tcp -e 1000 -c 1 -i 10 -a 1 -x {0.0 3.0 7 ------- null}
- -t 0.258029419354839 -s 2 -d 3 -p tcp -e 1000 -c 1 -i 10 -a 1 -x {0.0 3.0 7 ------- null}
h -t 0.258029419354839 -s 2 -d 3 -p tcp -e 1000 -c 1 -i 10 -a 1 -x {0.0 3.0 -1 ------- null}
r -t 0.260029419354839 -s 2 -d 3 -p tcp -e 1000 -c 1 -i 8 -a 1 -x {0.0 3.0 5 ------- null}
+ -t 0.260029419354839 -s 3 -d 2 -p ack -e 40 -c 1 -i 28 -a 1 -x {3.0 0.0 5 ------- null}
- -t 0.260029419354839 -s 3 -d 2 -p ack -e 40 -c 1 -i 28 -a 1 -x {3.0 0.0 5 ------- null}
h -t 0.260029419354839 -s 3 -d 2 -p ack -e 40 -c 1 -i 28 -a 1 -x {3.0 0.0 -1 ------- null}
- -t 0.261977806451613 -s 0 -d 1 -p tcp -e 1000 -c 1 -i 13 -a 1 -x {0.0 3.0 10 ------- null}
h -t 0.261977806451613 -s 0 -d 1 -p tcp -e 1000 -c 1 -i 13 -a 1 -x {0.0 3.0 -1 ------- null}
r -t 0.262349419354839 -s 3 -d 2 -p ack -e 40 -c 1 -i 27 -a 1 -x {3.0 0.0 4 ------- null}
+ -t 0.262349419354839 -s 2 -d 1 -p ack -e 40 -c 1 -i 27 -a 1 -x {3.0 0.0 4 ------- null}
- -t 0.262349419354839 -s 2 -d 1 -p ack -e 40 -c 1 -i 27 -a 1 -x {3.0 0.0 4 ------- null}
h -t 0.262349419354839 -s 2 -d 1 -p ack -e 40 -c 1 -i 27 -a 1 -x {3.0 0.0 -1 ------- null}
r -t 0.263977806451613 -s 0 -d 1 -p tcp -e 1000 -c 1 -i 11 -a 1 -x {0.0 3.0 8 ------- null}
+ -t 0.263977806451613 -s 1 -d 2 -p tcp -e 1000 -c 1 -i 11 -a 1 -x {0.0 3.0 8 ------- null}
- -t 0.263977806451613 -s 1 -d 2 -p tcp -e 1000 -c 1 -i 11 -a 1 -x {0.0 3.0 8 ------- null}
h -t 0.263977806451613 -s 1 -d 2 -p tcp -e 1000 -c 1 -i 11 -a 1 -x {0.0 3.0 -1 ------- null}
r -t 0.264351483870968 -s 2 -d 1 -p ack -e 40 -c 1 -i 27 -a 1 -x {3.0 0.0 4 ------- null}
+ -t 0.264351483870968 -s 1 -d 0 -p ack -e 40 -c 1 -i 27 -a 1 -x {3.0 0.0 4 ------- null}
- -t 0.264351483870968 -s 1 -d 0 -p ack -e 40 -c 1 -i 27 -a 1 -x {3.0 0.0 4 ------- null}
h -t 0.264351483870968 -s 1 -d 0 -p ack -e 40 -c 1 -i 27 -a 1 -x {3.0 0.0 -1 ------- null}
r -t 0.266029419354839 -s 1 -d 2 -p tcp -e 1000 -c 1 -i 11 -a 1 -x {0.0 3.0 8 ------- null}
+ -t 0.266029419354839 -s 2 -d 3 -p tcp -e 1000 -c 1 -i 11 -a 1 -x {0.0 3.0 8 ------- null}
- -t 0.266029419354839 -s 2 -d 3 -p tcp -e 1000 -c 1 -i 11 -a 1 -x {0.0 3.0 8 ------- null}
h -t 0.266029419354839 -s 2 -d 3 -p tcp -e 1000 -c 1 -i 11 -a 1 -x {0.0 3.0 -1 ------- null}
r -t 0.266671483870968 -s 1 -d 0 -p ack -e 40 -c 1 -i 26 -a 1 -x {3.0 0.0 3 ------- null}
+ -t 0.266671483870968 -s 0 -d 1 -p tcp -e 1000 -c 1 -i 29 -a 1 -x {0.0 3.0 23 ------- null}
r -t 0.268029419354839 -s 2 -d 3 -p tcp -e 1000 -c 1 -i 9 -a 1 -x {0.0 3.0 6 ------- null}
+ -t 0.268029419354839 -s 3 -d 2 -p ack -e 40 -c 1 -i 30 -a 1 -x {3.0 0.0 6 ------- null}
- -t 0.268029419354839 -s 3 -d 2 -p ack -e 40 -c 1 -i 30 -a 1 -x {3.0 0.0 6 ------- null}
h -t 0.268029419354839 -s 3 -d 2 -p ack -e 40 -c 1 -i 30 -a 1 -x {3.0 0.0 -1 ------- null}
- -t 0.269977806451613 -s 0 -d 1 -p tcp -e 1000 -c 1 -i 14 -a 1 -x {0.0 3.0 11 ------- null}
h -t 0.269977806451613 -s 0 -d 1 -p tcp -e 1000 -c 1 -i 14 -a 1 -x {0.0 3.0 -1 ------- null}
r -t 0.270349419354839 -s 3 -d 2 -p ack -e 40 -c 1 -i 28 -a 1 -x {3.0 0.0 5 ------- null}
+ -t 0.270349419354839 -s 2 -d 1 -p ack -e 40 -c 1 -i 28 -a 1 -x {3.0 0.0 5 ------- null}
- -t 0.270349419354839 -s 2 -d 1 -p ack -e 40 -c 1 -i 28 -a 1 -x {3.0 0.0 5 ------- null}
h -t 0.270349419354839 -s 2 -d 1 -p ack -e 40 -c 1 -i 28 -a 1 -x {3.0 0.0 -1 ------- null}
r -t 0.271977806451613 -s 0 -d 1 -p tcp -e 1000 -c 1 -i 12 -a 1 -x {0.0 3.0 9 ------- null}
+ -t 0.271977806451613 -s 1 -d 2 -p tcp -e 1000 -c 1 -i 12 -a 1 -x {0.0 3.0 9 ------- null}
- -t 0.271977806451613 -s 1 -d 2 -p tcp -e 1000 -c 1 -i 12 -a 1 -x {0.0 3.0 9 ------- null}
h -t 0.271977806451613 -s 1 -d 2 -p tcp -e 1000 -c 1 -i 12 -a 1 -x {0.0 3.0 -1 ------- null}
r -t 0.272351483870968 -s 2 -d 1 -p ack -e 40 -c 1 -i 28 -a 1 -x {3.0 0.0 5 ------- null}
+ -t 0.272351483870968 -s 1 -d 0 -p ack -e 40 -c 1 -i 28 -a 1 -x {3.0 0.0 5 ------- null}
- -t 0.272351483870968 -s 1 -d 0 -p ack -e 40 -c 1 -i 28 -a 1 -x {3.0 0.0 5 ------- null}
h -t 0.272351483870968 -s 1 -d 0 -p ack -e 40 -c 1 -i 28 -a 1 -x {3.0 0.0 -1 ------- null}
r -t 0.274029419354839 -s 1 -d 2 -p tcp -e 1000 -c 1 -i 12 -a 1 -x {0.0 3.0 9 ------- null}
+ -t 0.274029419354839 -s 2 -d 3 -p tcp -e 1000 -c 1 -i 12 -a 1 -x {0.0 3.0 9 ------- null}
- -t 0.274029419354839 -s 2 -d 3 -p tcp -e 1000 -c 1 -i 12 -a 1 -x {0.0 3.0 9 ------- null}
h -t 0.274029419354839 -s 2 -d 3 -p tcp -e 1000 -c 1 -i 12 -a 1 -x {0.0 3.0 -1 ------- null}
r -t 0.274671483870968 -s 1 -d 0 -p ack -e 40 -c 1 -i 27 -a 1 -x {3.0 0.0 4 ------- null}
+ -t 0.274671483870968 -s 0 -d 1 -p tcp -e 1000 -c 1 -i 31 -a 1 -x {0.0 3.0 24 ------- null}
r -t 0.276029419354839 -s 2 -d 3 -p tcp -e 1000 -c 1 -i 10 -a 1 -x {0.0 3.0 7 ------- null}
+ -t 0.276029419354839 -s 3 -d 2 -p ack -e 40 -c 1 -i 32 -a 1 -x {3.0 0.0 7 ------- null}
- -t 0.276029419354839 -s 3 -d 2 -p ack -e 40 -c 1 -i 32 -a 1 -x {3.0 0.0 7 ------- null}
h -t 0.276029419354839 -s 3 -d 2 -p ack -e 40 -c 1 -i 32 -a 1 -x {3.0 0.0 -1 ------- null}
- -t 0.277977806451613 -s 0 -d 1 -p tcp -e 1000 -c 1 -i 15 -a 1 -x {0.0 3.0 12 ------- null}
h -t 0.277977806451613 -s 0 -d 1 -p tcp -e 1000 -c 1 -i 15 -a 1 -x {0.0 3.0 -1 ------- null}
r -t 0.278349419354839 -s 3 -d 2 -p ack -e 40 -c 1 -i 30 -a 1 -x {3.0 0.0 6 ------- null}
+ -t 0.278349419354839 -s 2 -d 1 -p ack -e 40 -c 1 -i 30 -a 1 -x {3.0 0.0 6 ------- null}
- -t 0.278349419354839 -s 2 -d 1 -p ack -e 40 -c 1 -i 30 -a 1 -x {3.0 0.0 6 ------- null}
h -t 0.278349419354839 -s 2 -d 1 -p ack -e 40 -c 1 -i 30 -a 1 -x {3.0 0.0 -1 ------- null}
r -t 0.279977806451613 -s 0 -d 1 -p tcp -e 1000 -c 1 -i 13 -a 1 -x {0.0 3.0 10 ------- null}
+ -t 0.279977806451613 -s 1 -d 2 -p tcp -e 1000 -c 1 -i 13 -a 1 -x {0.0 3.0 10 ------- null}
- -t 0.279977806451613 -s 1 -d 2 -p tcp -e 1000 -c 1 -i 13 -a 1 -x {0.0 3.0 10 ------- null}
h -t 0.279977806451613 -s 1 -d 2 -p tcp -e 1000 -c 1 -i 13 -a 1 -x {0.0 3.0 -1 ------- null}
r -t 0.280351483870968 -s 2 -d 1 -p ack -e 40 -c 1 -i 30 -a 1 -x {3.0 0.0 6 ------- null}
+ -t 0.280351483870968 -s 1 -d 0 -p ack -e 40 -c 1 -i 30 -a 1 -x {3.0 0.0 6 ------- null}
- -t 0.280351483870968 -s 1 -d 0 -p ack -e 40 -c 1 -i 30 -a 1 -x {3.0 0.0 6 ------- null}
h -t 0.280351483870968 -s 1 -d 0 -p ack -e 40 -c 1 -i 30 -a 1 -x {3.0 0.0 -1 ------- null}
r -t 0.282029419354839 -s 1 -d 2 -p tcp -e 1000 -c 1 -i 13 -a 1 -x {0.0 3.0 10 ------- null}
+ -t 0.282029419354839 -s 2 -d 3 -p tcp -e 1000 -c 1 -i 13 -a 1 -x {0.0 3.0 10 ------- null}
- -t 0.282029419354839 -s 2 -d 3 -p tcp -e 1000 -c 1 -i 13 -a 1 -x {0.0 3.0 10 ------- null}
h -t 0.282029419354839 -s 2 -d 3 -p tcp -e 1000 -c 1 -i 13 -a 1 -x {0.0 3.0 -1 ------- null}
r -t 0.282671483870968 -s 1 -d 0 -p ack -e 40 -c 1 -i 28 -a 1 -x {3.0 0.0 5 ------- null}
+ -t 0.282671483870968 -s 0 -d 1 -p tcp -e 1000 -c 1 -i 33 -a 1 -x {0.0 3.0 25 ------- null}
r -t 0.284029419354839 -s 2 -d 3 -p tcp -e 1000 -c 1 -i 11 -a 1 -x {0.0 3.0 8 ------- null}
+ -t 0.284029419354839 -s 3 -d 2 -p ack -e 40 -c 1 -i 34 -a 1 -x {3.0 0.0 8 ------- null}
- -t 0.284029419354839 -s 3 -d 2 -p ack -e 40 -c 1 -i 34 -a 1 -x {3.0 0.0 8 ------- null}
h -t 0.284029419354839 -s 3 -d 2 -p ack -e 40 -c 1 -i 34 -a 1 -x {3.0 0.0 -1 ------- null}
- -t 0.285977806451613 -s 0 -d 1 -p tcp -e 1000 -c 1 -i 16 -a 1 -x {0.0 3.0 13 ------- null}
h -t 0.285977806451613 -s 0 -d 1 -p tcp -e 1000 -c 1 -i 16 -a 1 -x {0.0 3.0 -1 ------- null}
r -t 0.286349419354839 -s 3 -d 2 -p ack -e 40 -c 1 -i 32 -a 1 -x {3.0 0.0 7 ------- null}
+ -t 0.286349419354839 -s 2 -d 1 -p ack -e 40 -c 1 -i 32 -a 1 -x {3.0 0.0 7 ------- null}
- -t 0.286349419354839 -s 2 -d 1 -p ack -e 40 -c 1 -i 32 -a 1 -x {3.0 0.0 7 ------- null}
h -t 0.286349419354839 -s 2 -d 1 -p ack -e 40 -c 1 -i 32 -a 1 -x {3.0 0.0 -1 ------- null}
r -t 0.287977806451613 -s 0 -d 1 -p tcp -e 1000 -c 1 -i 14 -a 1 -x {0.0 3.0 11 ------- null}
+ -t 0.287977806451613 -s 1 -d 2 -p tcp -e 1000 -c 1 -i 14 -a 1 -x {0.0 3.0 11 ------- null}
- -t 0.287977806451613 -s 1 -d 2 -p tcp -e 1000 -c 1 -i 14 -a 1 -x {0.0 3.0 11 ------- null}
h -t 0.287977806451613 -s 1 -d 2 -p tcp -e 1000 -c 1 -i 14 -a 1 -x {0.0 3.0 -1 ------- null}
r -t 0.288351483870968 -s 2 -d 1 -p ack -e 40 -c 1 -i 32 -a 1 -x {3.0 0.0 7 ------- null}
+ -t 0.288351483870968 -s 1 -d 0 -p ack -e 40 -c 1 -i 32 -a 1 -x {3.0 0.0 7 ------- null}
- -t 0.288351483870968 -s 1 -d 0 -p ack -e 40 -c 1 -i 32 -a 1 -x {3.0 0.0 7 ------- null}
h -t 0.288351483870968 -s 1 -d 0 -p ack -e 40 -c 1 -i 32 -a 1 -x {3.0 0.0 -1 ------- null}
r -t 0.290029419354839 -s 1 -d 2 -p tcp -e 1000 -c 1 -i 14 -a 1 -x {0.0 3.0 11 ------- null}
+ -t 0.290029419354839 -s 2 -d 3 -p tcp -e 1000 -c 1 -i 14 -a 1 -x {0.0 3.0 11 ------- null}
- -t 0.290029419354839 -s 2 -d 3 -p tcp -e 1000 -c 1 -i 14 -a 1 -x {0.0 3.0 11 ------- null}
h -t 0.290029419354839 -s 2 -d 3 -p tcp -e 1000 -c 1 -i 14 -a 1 -x {0.0 3.0 -1 ------- null}
r -t 0.290671483870968 -s 1 -d 0 -p ack -e 40 -c 1 -i 30 -a 1 -x {3.0 0.0 6 ------- null}
+ -t 0.290671483870968 -s 0 -d 1 -p tcp -e 1000 -c 1 -i 35 -a 1 -x {0.0 3.0 26 ------- null}
r -t 0.292029419354839 -s 2 -d 3 -p tcp -e 1000 -c 1 -i 12 -a 1 -x {0.0 3.0 9 ------- null}
+ -t 0.292029419354839 -s 3 -d 2 -p ack -e 40 -c 1 -i 36 -a 1 -x {3.0 0.0 9 ------- null}
- -t 0.292029419354839 -s 3 -d 2 -p ack -e 40 -c 1 -i 36 -a 1 -x {3.0 0.0 9 ------- null}
h -t 0.292029419354839 -s 3 -d 2 -p ack -e 40 -c 1 -i 36 -a 1 -x {3.0 0.0 -1 ------- null}
- -t 0.293977806451613 -s 0 -d 1 -p tcp -e 1000 -c 1 -i 17 -a 1 -x {0.0 3.0 14 ------- null}
h -t 0.293977806451613 -s 0 -d 1 -p tcp -e 1000 -c 1 -i 17 -a 1 -x {0.0 3.0 -1 ------- null}
r -t 0.294349419354839 -s 3 -d 2 -p ack -e 40 -c 1 -i 34 -a 1 -x {3.0 0.0 8 ------- null}
+ -t 0.294349419354839 -s 2 -d 1 -p ack -e 40 -c 1 -i 34 -a 1 -x {3.0 0.0 8 ------- null}
- -t 0.294349419354839 -s 2 -d 1 -p ack -e 40 -c 1 -i 34 -a 1 -x {3.0 0.0 8 ------- null}
h -t 0.294349419354839 -s 2 -d 1 -p ack -e 40 -c 1 -i 34 -a 1 -x {3.0 0.0 -1 ------- null}
r -t 0.295977806451613 -s 0 -d 1 -p tcp -e 1000 -c 1 -i 15 -a 1 -x {0.0 3.0 12 ------- null}
+ -t 0.295977806451613 -s 1 -d 2 -p tcp -e 1000 -c 1 -i 15 -a 1 -x {0.0 3.0 12 ------- null}
- -t 0.295977806451613 -s 1 -d 2 -p tcp -e 1000 -c 1 -i 15 -a 1 -x {0.0 3.0 12 ------- null}
h -t 0.295977806451613 -s 1 -d 2 -p tcp -e 1000 -c 1 -i 15 -a 1 -x {0.0 3.0 -1 ------- null}
r -t 0.296351483870968 -s 2 -d 1 -p ack -e 40 -c 1 -i 34 -a 1 -x {3.0 0.0 8 ------- null}
+ -t 0.296351483870968 -s 1 -d 0 -p ack -e 40 -c 1 -i 34 -a 1 -x {3.0 0.0 8 ------- null}
- -t 0.296351483870968 -s 1 -d 0 -p ack -e 40 -c 1 -i 34 -a 1 -x {3.0 0.0 8 ------- null}
h -t 0.296351483870968 -s 1 -d 0 -p ack -e 40 -c 1 -i 34 -a 1 -x {3.0 0.0 -1 ------- null}
r -t 0.298029419354839 -s 1 -d 2 -p tcp -e 1000 -c 1 -i 15 -a 1 -x {0.0 3.0 12 ------- null}
+ -t 0.298029419354839 -s 2 -d 3 -p tcp -e 1000 -c 1 -i 15 -a 1 -x {0.0 3.0 12 ------- null}
- -t 0.298029419354839 -s 2 -d 3 -p tcp -e 1000 -c 1 -i 15 -a 1 -x {0.0 3.0 12 ------- null}
h -t 0.298029419354839 -s 2 -d 3 -p tcp -e 1000 -c 1 -i 15 -a 1 -x {0.0 3.0 -1 ------- null}
r -t 0.298671483870968 -s 1 -d 0 -p ack -e 40 -c 1 -i 32 -a 1 -x {3.0 0.0 7 ------- null}
+ -t 0.298671483870968 -s 0 -d 1 -p tcp -e 1000 -c 1 -i 37 -a 1 -x {0.0 3.0 27 ------- null}
r -t 0.300029419354839 -s 2 -d 3 -p tcp -e 1000 -c 1 -i 13 -a 1 -x {0.0 3.0 10 ------- null}
+ -t 0.300029419354839 -s 3 -d 2 -p ack -e 40 -c 1 -i 38 -a 1 -x {3.0 0.0 10 ------- null}
- -t 0.300029419354839 -s 3 -d 2 -p ack -e 40 -c 1 -i 38 -a 1 -x {3.0 0.0 10 ------- null}
h -t 0.300029419354839 -s 3 -d 2 -p ack -e 40 -c 1 -i 38 -a 1 -x {3.0 0.0 -1 ------- null}
- -t 0.301977806451613 -s 0 -d 1 -p tcp -e 1000 -c 1 -i 18 -a 1 -x {0.0 3.0 15 ------- null}
h -t 0.301977806451613 -s 0 -d 1 -p tcp -e 1000 -c 1 -i 18 -a 1 -x {0.0 3.0 -1 ------- null}
r -t 0.302349419354839 -s 3 -d 2 -p ack -e 40 -c 1 -i 36 -a 1 -x {3.0 0.0 9 ------- null}
+ -t 0.302349419354839 -s 2 -d 1 -p ack -e 40 -c 1 -i 36 -a 1 -x {3.0 0.0 9 ------- null}
- -t 0.302349419354839 -s 2 -d 1 -p ack -e 40 -c 1 -i 36 -a 1 -x {3.0 0.0 9 ------- null}
h -t 0.302349419354839 -s 2 -d 1 -p ack -e 40 -c 1 -i 36 -a 1 -x {3.0 0.0 -1 ------- null}
r -t 0.303977806451613 -s 0 -d 1 -p tcp -e 1000 -c 1 -i 16 -a 1 -x {0.0 3.0 13 ------- null}
+ -t 0.303977806451613 -s 1 -d 2 -p tcp -e 1000 -c 1 -i 16 -a 1 -x {0.0 3.0 13 ------- null}
- -t 0.303977806451613 -s 1 -d 2 -p tcp -e 1000 -c 1 -i 16 -a 1 -x {0.0 3.0 13 ------- null}
h -t 0.303977806451613 -s 1 -d 2 -p tcp -e 1000 -c 1 -i 16 -a 1 -x {0.0 3.0 -1 ------- null}
r -t 0.304351483870968 -s 2 -d 1 -p ack -e 40 -c 1 -i 36 -a 1 -x {3.0 0.0 9 ------- null}
+ -t 0.304351483870968 -s 1 -d 0 -p ack -e 40 -c 1 -i 36 -a 1 -x {3.0 0.0 9 ------- null}
- -t 0.304351483870968 -s 1 -d 0 -p ack -e 40 -c 1 -i 36 -a 1 -x {3.0 0.0 9 ------- null}
h -t 0.304351483870968 -s 1 -d 0 -p ack -e 40 -c 1 -i 36 -a 1 -x {3.0 0.0 -1 ------- null}
r -t 0.306029419354839 -s 1 -d 2 -p tcp -e 1000 -c 1 -i 16 -a 1 -x {0.0 3.0 13 ------- null}
+ -t 0.306029419354839 -s 2 -d 3 -p tcp -e 1000 -c 1 -i 16 -a 1 -x {0.0 3.0 13 ------- null}
- -t 0.306029419354839 -s 2 -d 3 -p tcp -e 1000 -c 1 -i 16 -a 1 -x {0.0 3.0 13 ------- null}
h -t 0.306029419354839 -s 2 -d 3 -p tcp -e 1000 -c 1 -i 16 -a 1 -x {0.0 3.0 -1 ------- null}
r -t 0.306671483870968 -s 1 -d 0 -p ack -e 40 -c 1 -i 34 -a 1 -x {3.0 0.0 8 ------- null}
+ -t 0.306671483870968 -s 0 -d 1 -p tcp -e 1000 -c 1 -i 39 -a 1 -x {0.0 3.0 28 ------- null}
r -t 0.308029419354839 -s 2 -d 3 -p tcp -e 1000 -c 1 -i 14 -a 1 -x {0.0 3.0 11 ------- null}
+ -t 0.308029419354839 -s 3 -d 2 -p ack -e 40 -c 1 -i 40 -a 1 -x {3.0 0.0 11 ------- null}
- -t 0.308029419354839 -s 3 -d 2 -p ack -e 40 -c 1 -i 40 -a 1 -x {3.0 0.0 11 ------- null}
h -t 0.308029419354839 -s 3 -d 2 -p ack -e 40 -c 1 -i 40 -a 1 -x {3.0 0.0 -1 ------- null}
- -t 0.309977806451613 -s 0 -d 1 -p tcp -e 1000 -c 1 -i 19 -a 1 -x {0.0 3.0 16 ------- null}
h -t 0.309977806451613 -s 0 -d 1 -p tcp -e 1000 -c 1 -i 19 -a 1 -x {0.0 3.0 -1 ------- null}
r -t 0.310349419354839 -s 3 -d 2 -p ack -e 40 -c 1 -i 38 -a 1 -x {3.0 0.0 10 ------- null}
+ -t 0.310349419354839 -s 2 -d 1 -p ack -e 40 -c 1 -i 38 -a 1 -x {3.0 0.0 10 ------- null}
- -t 0.310349419354839 -s 2 -d 1 -p ack -e 40 -c 1 -i 38 -a 1 -x {3.0 0.0 10 ------- null}
h -t 0.310349419354839 -s 2 -d 1 -p ack -e 40 -c 1 -i 38 -a 1 -x {3.0 0.0 -1 ------- null}
r -t 0.311977806451613 -s 0 -d 1 -p tcp -e 1000 -c 1 -i 17 -a 1 -x {0.0 3.0 14 ------- null}
+ -t 0.311977806451613 -s 1 -d 2 -p tcp -e 1000 -c 1 -i 17 -a 1 -x {0.0 3.0 14 ------- null}
- -t 0.311977806451613 -s 1 -d 2 -p tcp -e 1000 -c 1 -i 17 -a 1 -x {0.0 3.0 14 ------- null}
h -t 0.311977806451613 -s 1 -d 2 -p tcp -e 1000 -c 1 -i 17 -a 1 -x {0.0 3.0 -1 ------- null}
r -t 0.312351483870968 -s 2 -d 1 -p ack -e 40 -c 1 -i 38 -a 1 -x {3.0 0.0 10 ------- null}
+ -t 0.312351483870968 -s 1 -d 0 -p ack -e 40 -c 1 -i 38 -a 1 -x {3.0 0.0 10 ------- null}
- -t 0.312351483870968 -s 1 -d 0 -p ack -e 40 -c 1 -i 38 -a 1 -x {3.0 0.0 10 ------- null}